 Gaussian 16, Revision C.01,
 Gaussian 16:  ES64L-G16RevC.01  3-Jul-2019

 ----------------------------------------------------------------------
 # pbepbe/Gen pseudo=read Opt Freq EmpiricalDispersion=GD3BJ SCRF=(read
 )
 ----------------------------------------------------------------------

 -------------
 PbBr2_GBL.xyz
 -------------
 Symbolic Z-matrix:
 Charge =  0 Multiplicity = 1

 SCF Done:  E(RPBE-PBE) =  -1254.71134418     A.U. after   13 cycles
 SCF Done:  E(RPBE-PBE) =  -1254.67260388     A.U. after   14 cycles
 SCF Done:  E(RPBE-PBE) =  -1254.70970481     A.U. after   11 cycles
 SCF Done:  E(RPBE-PBE) =  -1254.71134466     A.U. after    6 cycles
 SCF Done:  E(RPBE-PBE) =  -1254.71133136     A.U. after   10 cycles
 SCF Done:  E(RPBE-PBE) =  -1254.71137959     A.U. after   10 cycles
 SCF Done:  E(RPBE-PBE) =  -1254.71139585     A.U. after    9 cycles
 SCF Done:  E(RPBE-PBE) =  -1254.71141219     A.U. after    9 cycles
 SCF Done:  E(RPBE-PBE) =  -1254.71141845     A.U. after    8 cycles
 SCF Done:  E(RPBE-PBE) =  -1254.71142253     A.U. after    8 cycles
 SCF Done:  E(RPBE-PBE) =  -1254.71146735     A.U. after    6 cycles
 SCF Done:  E(RPBE-PBE) =  -1254.71146778     A.U. after    8 cycles
 SCF Done:  E(RPBE-PBE) =  -1254.71146737     A.U. after    8 cycles
 SCF Done:  E(RPBE-PBE) =  -1254.71146735     A.U. after    6 cycles
 SCF Done:  E(RPBE-PBE) =  -1254.71146778     A.U. after    8 cycles
 SCF Done:  E(RPBE-PBE) =  -1254.71146734     A.U. after    8 cycles
 SCF Done:  E(RPBE-PBE) =  -1254.71146730     A.U. after    7 cycles
 SCF Done:  E(RPBE-PBE) =  -1254.71146779     A.U. after    8 cycles
 SCF Done:  E(RPBE-PBE) =  -1254.71146734     A.U. after    8 cycles
 Optimization completed.
    -- Stationary point found.
 Normal termination of Gaussian 16 at Thu Nov  5 16:23:36 2020.

 -------------------------------------------------------------------
 #N Geom=AllCheck Guess=TCheck SCRF=Check GenChk RPBEPBE/ChkBas Freq
 -------------------------------------------------------------------

 Structure from the checkpoint file:  "01-PbBr2_gbl.chk"
 -------------
 PbBr2_GBL.xyz
 -------------
 Charge =  0 Multiplicity = 1

                         Standard orientation:
 ---------------------------------------------------------------------
 Center     Atomic      Atomic             Coordinates (Angstroms)
 Number     Number       Type             X           Y           Z
 ---------------------------------------------------------------------
      1         82           0        0.378225   -0.397216   -0.238330
      2         35           0        1.381637   -1.388595    2.277905
      3         35           0       -1.396951   -2.708748   -0.779268
      4          8           0        1.527720    1.951726    0.326524
      5          6           0        1.040152    3.082786    0.239783
      6          6           0       -0.374389    3.490686   -0.101758
      7          8           0        1.811603    4.164706    0.473401
      8          6           0       -0.227909    4.973291   -0.457380
      9          6           0        0.997473    5.381150    0.366650
     10          1           0        1.634520    6.153056   -0.100195
     11          1           0        0.736772    5.691840    1.398949
     12          1           0       -1.115968    5.581152   -0.206969
     13          1           0       -0.017631    5.090517   -1.538784
     14          1           0       -0.992192    3.315425    0.804301
     15          1           0       -0.779956    2.834957   -0.894183
     16          8           0       -1.195353    0.924705   -2.119190
     17          6           0       -2.366774    0.599164   -2.318205
     18          6           0       -3.523554    0.541334   -1.342235
     19          8           0       -2.767681    0.207602   -3.549743
     20          6           0       -4.749325    0.492880   -2.258587
     21          6           0       -4.178105   -0.188142   -3.506514
     22          1           0       -4.633955    0.133082   -4.459806
     23          1           0       -4.204642   -1.294871   -3.436878
     24          1           0       -5.601814   -0.067603   -1.834150
     25          1           0       -5.090694    1.518139   -2.503272
     26          1           0       -3.395404   -0.403988   -0.769667
     27          1           0       -3.485384    1.381952   -0.627349
     28          8           0       -1.363261    0.783353    1.167713
     29          6           0       -2.200828    0.372097    1.980509
     30          6           0       -2.406997   -1.017120    2.528453
     31          8           0       -3.093988    1.237504    2.494298
     32          6           0       -3.818616   -0.944306    3.120422
     33          6           0       -3.945703    0.541383    3.469658
     34          1           0       -4.961371    0.960235    3.360877
     35          1           0       -3.549656    0.783418    4.476542
     36          1           0       -3.964060   -1.591732    4.003577
     37          1           0       -4.568837   -1.222880    2.354101
     38          1           0       -1.616760   -1.183702    3.292363
     39          1           0       -2.253431   -1.770706    1.731617
     40          8           0        2.659419   -1.197889   -1.311865
     41          6           0        3.802122   -0.856830   -0.993496
     42          6           0        4.257925    0.069257    0.112261
     43          8           0        4.860458   -1.350735   -1.671924
     44          6           0        5.704931    0.387310   -0.277243
     45          6           0        6.104843   -0.861597   -1.069133
     46          1           0        6.812769   -0.678753   -1.896881
     47          1           0        6.495519   -1.672727   -0.421224
     48          1           0        6.370963    0.560630    0.587171
     49          1           0        5.739383    1.281807   -0.930117
     50          1           0        4.181331   -0.505816    1.061231
     51          1           0        3.579239    0.937490    0.206716
 ---------------------------------------------------------------------

 SCF Done:  E(RPBE-PBE) =  -1254.71146734     A.U. after    1 cycles

 The electronic state is 1-A.
 Alpha  occ. eigenvalues --  -18.83136 -18.82551 -18.82360 -18.82197 -18.78860
 Alpha  occ. eigenvalues --  -18.78041 -18.77781 -18.77191 -10.04150 -10.03520
 Alpha  occ. eigenvalues --  -10.03368 -10.03074  -9.96485  -9.96228  -9.96121
 Alpha  occ. eigenvalues --   -9.96056  -9.91935  -9.91776  -9.91690  -9.91593
 Alpha  occ. eigenvalues --   -9.91563  -9.91480  -9.91454  -9.91412  -1.03488
 Alpha  occ. eigenvalues --   -1.02821  -1.02613  -1.02322  -0.95552  -0.94900
 Alpha  occ. eigenvalues --   -0.94681  -0.94370  -0.73882  -0.73541  -0.73481
 Alpha  occ. eigenvalues --   -0.73438  -0.67248  -0.66835  -0.66694  -0.66590
 Alpha  occ. eigenvalues --   -0.62927  -0.62087  -0.57276  -0.56973  -0.56819
 Alpha  occ. eigenvalues --   -0.56715  -0.51829  -0.51137  -0.50772  -0.50660
 Alpha  occ. eigenvalues --   -0.48094  -0.47088  -0.46802  -0.46620  -0.46568
 Alpha  occ. eigenvalues --   -0.45978  -0.45881  -0.45434  -0.44113  -0.42480
 Alpha  occ. eigenvalues --   -0.41705  -0.41449  -0.40998  -0.39378  -0.38817
 Alpha  occ. eigenvalues --   -0.38756  -0.38589  -0.38373  -0.38026  -0.37989
 Alpha  occ. eigenvalues --   -0.37658  -0.37069  -0.36513  -0.36139  -0.35389
 Alpha  occ. eigenvalues --   -0.33682  -0.33206  -0.33163  -0.33012  -0.32346
 Alpha  occ. eigenvalues --   -0.31983  -0.31829  -0.31716  -0.30899  -0.30740
 Alpha  occ. eigenvalues --   -0.30496  -0.30270  -0.27519  -0.26904  -0.26798
 Alpha  occ. eigenvalues --   -0.26579  -0.26337  -0.25728  -0.25058  -0.24527
 Alpha  occ. eigenvalues --   -0.24122  -0.22432  -0.21997  -0.21635  -0.21247
 Alpha  occ. eigenvalues --   -0.20803
 Alpha virt. eigenvalues --   -0.05995  -0.05693  -0.05030  -0.04615  -0.02904
 Alpha virt. eigenvalues --   -0.02649  -0.01324   0.02188   0.03747   0.03799
 Alpha virt. eigenvalues --    0.04292   0.05412   0.05989   0.06125   0.06400

 Mulliken charges:
               1
     1  Pb   0.867611
     2  Br  -0.615265
     3  Br  -0.629392
     4  O   -0.276861
     5  C    0.203656
     6  C   -0.088003
     7  O   -0.196399
     8  C   -0.047161
     9  C    0.107311
    10  H    0.063942
    11  H    0.066896
    12  H    0.050256
    13  H    0.055741
    14  H    0.084361
    15  H    0.071205
    16  O   -0.274609
    17  C    0.198179
    18  C   -0.084839
    19  O   -0.197345
    20  C   -0.043783
    21  C    0.106879
    22  H    0.061641
    23  H    0.063746
    24  H    0.049384
    25  H    0.055567
    26  H    0.080126
    27  H    0.067011
    28  O   -0.304133
    29  C    0.224120
    30  C   -0.048288
    31  O   -0.195104
    32  C   -0.053175
    33  C    0.107148
    34  H    0.066569
    35  H    0.070634
    36  H    0.053551
    37  H    0.058323
    38  H    0.086042
    39  H    0.055571
    40  O   -0.281522
    41  C    0.202487
    42  C   -0.087342
    43  O   -0.196756
    44  C   -0.051221
    45  C    0.108037
    46  H    0.063019
    47  H    0.066526
    48  H    0.050492
    49  H    0.055534
    50  H    0.083696
    51  H    0.065939
 Sum of Mulliken charges =   0.00000

 Dipole moment (field-independent basis, Debye):
    X=             -5.4454    Y=             15.1086    Z=              0.5478  Tot=             16.0693
 Quadrupole moment (field-independent basis, Debye-Ang):
   XX=           -105.0557   YY=           -179.7486   ZZ=           -182.1505
   XY=             -3.0546   XZ=            -15.7285   YZ=             -3.1082

  Exact polarizability:     403.601      15.538     342.286      13.221       3.114     330.583
 Approx polarizability:     497.647      27.793     446.979      24.202       2.725     439.688

                      1                      2                      3
                      A                      A                      A
 Frequencies --      6.1044                12.5278                13.6634
 Red. masses --      5.3280                 7.3541                 5.8001
 Frc consts  --      0.0001                 0.0007                 0.0006
 IR Inten    --      1.5650                 2.7404                 2.7853

                      4                      5                      6
                      A                      A                      A
 Frequencies --     18.9716                22.0074                26.1792
 Red. masses --      5.8980                 6.6378                 6.4217
 Frc consts  --      0.0013                 0.0019                 0.0026
 IR Inten    --      1.2367                 1.2806                 2.8557

                      7                      8                      9
                      A                      A                      A
 Frequencies --     30.2741                31.8765                39.3066
 Red. masses --      6.3894                 6.2621                 6.9418
 Frc consts  --      0.0035                 0.0037                 0.0063
 IR Inten    --      0.9810                 0.6633                 2.9385

                     10                     11                     12
                      A                      A                      A
 Frequencies --     40.6843                49.4822                51.4709
 Red. masses --      6.9392                 5.2315                 5.9320
 Frc consts  --      0.0068                 0.0075                 0.0093
 IR Inten    --      3.2850                 5.2439                 3.4566

                     13                     14                     15
                      A                      A                      A
 Frequencies --     55.8780                57.7341                61.2522
 Red. masses --      8.9430                 5.9031                 4.5198
 Frc consts  --      0.0165                 0.0116                 0.0100
 IR Inten    --      2.2201                 0.3298                 8.8113

                     16                     17                     18
                      A                      A                      A
 Frequencies --     63.4138                67.7956                77.2038
 Red. masses --      4.6031                 6.0405                 5.7455
 Frc consts  --      0.0109                 0.0164                 0.0202
 IR Inten    --      9.8415                 8.6344                 2.7608

                     19                     20                     21
                      A                      A                      A
 Frequencies --     80.9707                87.3300                95.9006
 Red. masses --      5.8872                 5.7032                 7.5340
 Frc consts  --      0.0227                 0.0256                 0.0408
 IR Inten    --      2.6691                 4.8282                54.0885

                     22                     23                     24
                      A                      A                      A
 Frequencies --     99.4990               104.7340               108.5490
 Red. masses --      6.7828                10.7817                 8.5062
 Frc consts  --      0.0396                 0.0697                 0.0591
 IR Inten    --     14.0048               121.3793                40.7731

                     25                     26                     27
                      A                      A                      A
 Frequencies --    117.9700               122.9224               143.9306
 Red. masses --     14.1183                16.4458                12.1230
 Frc consts  --      0.1158                 0.1464                 0.1480
 IR Inten    --     40.4059                36.4521                15.2609

                     28                     29                     30
                      A                      A                      A
 Frequencies --    164.1680               166.2099               171.9594
 Red. masses --      2.5017                 2.4993                 2.5041
 Frc consts  --      0.0397                 0.0407                 0.0436
 IR Inten    --      3.9908                15.0077                 4.7739

                     31                     32                     33
                      A                      A                      A
 Frequencies --    196.3297               214.1595               216.8650
 Red. masses --      2.9492                 2.3716                 2.4403
 Frc consts  --      0.0670                 0.0641                 0.0676
 IR Inten    --     18.3971                 1.1377                 1.3426

                     34                     35                     36
                      A                      A                      A
 Frequencies --    217.1718               222.5897               474.0104
 Red. masses --      2.3624                 2.2040                 6.2520
 Frc consts  --      0.0656                 0.0643                 0.8276
 IR Inten    --      1.8978                 1.3301                 5.2156

                     37                     38                     39
                      A                      A                      A
 Frequencies --    485.7730               488.4341               490.1679
 Red. masses --      6.5731                 6.5917                 6.6540
 Frc consts  --      0.9139                 0.9265                 0.9419
 IR Inten    --      9.4986                 5.8156                 5.8667

                     40                     41                     42
                      A                      A                      A
 Frequencies --    516.9786               519.0452               522.8250
 Red. masses --      2.0680                 2.0754                 2.0481
 Frc consts  --      0.3257                 0.3294                 0.3299
 IR Inten    --      9.1452                10.2422                18.7122

                     43                     44                     45
                      A                      A                      A
 Frequencies --    525.0391               619.0306               620.6020
 Red. masses --      2.0438                 2.6522                 2.6219
 Frc consts  --      0.3319                 0.5988                 0.5950
 IR Inten    --      6.0738                10.5135                17.6520

                     46                     47                     48
                      A                      A                      A
 Frequencies --    621.4061               622.3295               670.9963
 Red. masses --      2.6847                 2.6187                 5.7004
 Frc consts  --      0.6108                 0.5976                 1.5122
 IR Inten    --     12.6421                11.5431                33.5253

                     49                     50                     51
                      A                      A                      A
 Frequencies --    674.2060               675.3027               678.9052
 Red. masses --      5.5427                 5.7639                 5.7287
 Frc consts  --      1.4844                 1.5487                 1.5557
 IR Inten    --     79.4972                56.3766                25.2848

                     52                     53                     54
                      A                      A                      A
 Frequencies --    790.9623               792.5079               793.0186
 Red. masses --      2.3506                 2.3637                 2.4026
 Frc consts  --      0.8664                 0.8747                 0.8902
 IR Inten    --      9.2953                11.7717                 3.8546

                     55                     56                     57
                      A                      A                      A
 Frequencies --    793.3385               856.1594               856.7135
 Red. masses --      2.4746                 1.7011                 1.6928
 Frc consts  --      0.9176                 0.7347                 0.7320
 IR Inten    --      8.3584                 4.3657                 5.6004

                     58                     59                     60
                      A                      A                      A
 Frequencies --    857.7073               862.9796               875.7460
 Red. masses --      1.7015                 1.6335                 2.2849
 Frc consts  --      0.7375                 0.7168                 1.0325
 IR Inten    --      4.5918                 8.8997                18.2231

                     61                     62                     63
                      A                      A                      A
 Frequencies --    877.9848               879.2508               881.5730
 Red. masses --      2.3307                 2.4445                 2.4369
 Frc consts  --      1.0585                 1.1134                 1.1158
 IR Inten    --      7.5945                 9.8677                 2.6182

                     64                     65                     66
                      A                      A                      A
 Frequencies --    926.6190               928.0099               928.7029
 Red. masses --      2.5420                 2.5461                 2.5352
 Frc consts  --      1.2860                 1.2919                 1.2883
 IR Inten    --     20.7173                18.4542                19.2886

                     67                     68                     69
                      A                      A                      A
 Frequencies --    929.2618               967.6914               969.6401
 Red. masses --      2.5547                 2.5817                 2.8148
 Frc consts  --      1.2997                 1.4244                 1.5593
 IR Inten    --     12.8383                32.1362                98.7967

                     70                     71                     72
                      A                      A                      A
 Frequencies --    971.0860               972.4580              1019.8782
 Red. masses --      2.7462                 2.7576                 2.4147
 Frc consts  --      1.5258                 1.5365                 1.4799
 IR Inten    --    120.6384                52.0836                73.5700

                     73                     74                     75
                      A                      A                      A
 Frequencies --   1022.5921              1022.9067              1023.9848
 Red. masses --      2.4018                 2.3927                 2.3980
 Frc consts  --      1.4798                 1.4751                 1.4815
 IR Inten    --     36.3055                59.7890                45.6502

                     76                     77                     78
                      A                      A                      A
 Frequencies --   1050.7356              1055.3876              1056.0135
 Red. masses --      1.7435                 1.8005                 1.8012
 Frc consts  --      1.1341                 1.1816                 1.1835
 IR Inten    --     16.4069                 7.7748                10.9127

                     79                     80                     81
                      A                      A                      A
 Frequencies --   1056.8379              1142.6067              1143.9150
 Red. masses --      1.8124                 1.3138                 1.3317
 Frc consts  --      1.1927                 1.0106                 1.0267
 IR Inten    --      6.9398                17.7263                19.2872

                     82                     83                     84
                      A                      A                      A
 Frequencies --   1145.1964              1146.0836              1162.7808
 Red. masses --      1.3325                 1.3334                 2.0371
 Frc consts  --      1.0296                 1.0319                 1.6228
 IR Inten    --     30.6218                17.2520               219.6854

                     85                     86                     87
                      A                      A                      A
 Frequencies --   1169.4668              1170.9061              1171.7200
 Red. masses --      2.1509                 1.9382                 1.9721
 Frc consts  --      1.7332                 1.5656                 1.5952
 IR Inten    --    252.0192               260.6700               219.5383

                     88                     89                     90
                      A                      A                      A
 Frequencies --   1175.1021              1176.1896              1176.7057
 Red. masses --      1.4783                 1.5357                 1.5056
 Frc consts  --      1.2028                 1.2518                 1.2283
 IR Inten    --      9.1640                41.5611                 5.6245

                     91                     92                     93
                      A                      A                      A
 Frequencies --   1178.3197              1206.2030              1207.5521
 Red. masses --      1.8848                 1.2092                 1.2421
 Frc consts  --      1.5419                 1.0365                 1.0672
 IR Inten    --    192.2508                21.2708                51.3088

                     94                     95                     96
                      A                      A                      A
 Frequencies --   1209.1963              1210.9556              1252.1029
 Red. masses --      1.2998                 1.2629                 1.5993
 Frc consts  --      1.1198                 1.0911                 1.4772
 IR Inten    --     81.5219                43.2163                34.0833

                     97                     98                     99
                      A                      A                      A
 Frequencies --   1259.6388              1261.7379              1263.1585
 Red. masses --      1.6067                 1.5897                 1.5559
 Frc consts  --      1.5020                 1.4911                 1.4627
 IR Inten    --     30.2079                17.7475                17.1027

                    100                    101                    102
                      A                      A                      A
 Frequencies --   1292.3900              1292.8108              1294.2955
 Red. masses --      1.4612                 1.4731                 1.4859
 Frc consts  --      1.4380                 1.4506                 1.4665
 IR Inten    --     16.0507                29.2630                24.9456

                    103                    104                    105
                      A                      A                      A
 Frequencies --   1294.6211              1347.0124              1349.9514
 Red. masses --      1.4799                 1.6671                 1.7019
 Frc consts  --      1.4614                 1.7822                 1.8273
 IR Inten    --     14.8626                69.8865                68.2888

                    106                    107                    108
                      A                      A                      A
 Frequencies --   1350.8580              1354.0783              1365.0383
 Red. masses --      1.7193                 1.6852                 1.1318
 Frc consts  --      1.8485                 1.8205                 1.2426
 IR Inten    --     95.6998                80.8206                 7.7893

                    109                    110                    111
                      A                      A                      A
 Frequencies --   1371.5173              1375.2075              1375.4317
 Red. masses --      1.0918                 1.0846                 1.0815
 Frc consts  --      1.2100                 1.2085                 1.2054
 IR Inten    --     14.4013                11.4910                15.4284

                    112                    113                    114
                      A                      A                      A
 Frequencies --   1409.5243              1409.7869              1410.6549
 Red. masses --      1.1099                 1.1109                 1.1096
 Frc consts  --      1.2992                 1.3009                 1.3009
 IR Inten    --     10.4317                21.6122                 7.7870

                    115                    116                    117
                      A                      A                      A
 Frequencies --   1410.7299              1431.1257              1432.8090
 Red. masses --      1.1102                 1.1029                 1.1063
 Frc consts  --      1.3018                 1.3309                 1.3381
 IR Inten    --     19.7687                 3.5090                 2.6827

                    118                    119                    120
                      A                      A                      A
 Frequencies --   1433.1996              1433.8047              1691.8069
 Red. masses --      1.1081                 1.1049                12.0422
 Frc consts  --      1.3411                 1.3383                20.3076
 IR Inten    --      4.5039                 2.1270              1459.5338

                    121                    122                    123
                      A                      A                      A
 Frequencies --   1702.4967              1707.1204              1716.4635
 Red. masses --     12.2062                12.2038                12.2030
 Frc consts  --     20.8451                20.9542                21.1829
 IR Inten    --   1256.8863              1193.6806               301.6746

                    124                    125                    126
                      A                      A                      A
 Frequencies --   2974.2571              2982.6354              2983.6749
 Red. masses --      1.0696                 1.0679                 1.0637
 Frc consts  --      5.5746                 5.5975                 5.5794
 IR Inten    --      2.9059                 7.6468                13.8021

                    127                    128                    129
                      A                      A                      A
 Frequencies --   2997.6505              2997.8471              2998.7140
 Red. masses --      1.0651                 1.0653                 1.0664
 Frc consts  --      5.6388                 5.6406                 5.6501
 IR Inten    --     51.3443                44.2845                39.0869

                    130                    131                    132
                      A                      A                      A
 Frequencies --   3001.3080              3003.9141              3009.7668
 Red. masses --      1.0658                 1.0657                 1.0630
 Frc consts  --      5.6566                 5.6660                 5.6733
 IR Inten    --      5.6294                34.7748                27.3931

                    133                    134                    135
                      A                      A                      A
 Frequencies --   3009.9680              3010.1463              3010.3060
 Red. masses --      1.0637                 1.0634                 1.0629
 Frc consts  --      5.6780                 5.6769                 5.6748
 IR Inten    --     29.6711                29.2146                30.1671

                    136                    137                    138
                      A                      A                      A
 Frequencies --   3040.0461              3061.6712              3067.4943
 Red. masses --      1.1013                 1.0976                 1.0988
 Frc consts  --      5.9968                 6.0617                 6.0915
 IR Inten    --     35.1715                34.5285                28.8938

                    139                    140                    141
                      A                      A                      A
 Frequencies --   3072.7900              3074.3141              3075.0233
 Red. masses --      1.1018                 1.1018                 1.1019
 Frc consts  --      6.1297                 6.1356                 6.1390
 IR Inten    --     12.4027                10.3558                 6.6209

                    142                    143                    144
                      A                      A                      A
 Frequencies --   3077.7677              3081.6834              3083.8082
 Red. masses --      1.1019                 1.1015                 1.1065
 Frc consts  --      6.1497                 6.1631                 6.2000
 IR Inten    --      9.9159                20.1007                22.9128

                    145                    146                    147
                      A                      A                      A
 Frequencies --   3084.6118              3085.1345              3088.9192
 Red. masses --      1.1066                 1.1008                 1.1068
 Frc consts  --      6.2037                 6.1732                 6.2222
 IR Inten    --     25.2165                 7.6844                19.8161

 - Thermochemistry -
 -------------------
 Temperature   298.150 Kelvin.  Pressure   1.00000 Atm.
 Atom     1 has atomic number 82 and mass 207.97660

 Molecular mass:   709.96039 amu.
 Principal axes and moments of inertia in atomic units:
                           1         2         3
     Eigenvalues --  ******************************
           X            0.99975  -0.00603  -0.02169
           Y            0.00584   0.99994  -0.00890
           Z            0.02175   0.00877   0.99973
 This molecule is an asymmetric top.
 Rotational symmetry number  1.
 Warning -- assumption of classical behavior for rotation
           may cause significant error
 Rotational temperatures (Kelvin)      0.00591     0.00414     0.00378
 Rotational constants (GHZ):           0.12321     0.08621     0.07876
 Zero-point vibrational energy    1013462.0 (Joules/Mol)
                                  242.22322 (Kcal/Mol)
 Warning -- explicit consideration of  45 degrees of freedom as
           vibrations may cause significant error
 Vibrational temperatures:      8.78    18.02    19.66    27.30    31.66
          (Kelvin)             37.67    43.56    45.86    56.55    58.54
                               71.19    74.06    80.40    83.07    88.13
                               91.24    97.54   111.08   116.50   125.65
                              137.98   143.16   150.69   156.18   169.73
                              176.86   207.08   236.20   239.14   247.41
                              282.47   308.13   312.02   312.46   320.26
                              682.00   698.92   702.75   705.24   743.82
                              746.79   752.23   755.41   890.65   892.91
                              894.06   895.39   965.41   970.03   971.61
                              976.79  1138.02  1140.24  1140.98  1141.44
                             1231.82  1232.62  1234.05  1241.64  1260.00
                             1263.22  1265.05  1268.39  1333.20  1335.20
                             1336.20  1337.00  1392.29  1395.10  1397.18
                             1399.15  1467.38  1471.28  1471.73  1473.29
                             1511.77  1518.47  1519.37  1520.55  1643.96
                             1645.84  1647.68  1648.96  1672.98  1682.60
                             1684.67  1685.84  1690.71  1692.27  1693.02
                             1695.34  1735.46  1737.40  1739.76  1742.30
                             1801.50  1812.34  1815.36  1817.40  1859.46
                             1860.07  1862.20  1862.67  1938.05  1942.28
                             1943.58  1948.22  1963.99  1973.31  1978.62
                             1978.94  2027.99  2028.37  2029.62  2029.73
                             2059.07  2061.49  2062.05  2062.93  2434.13
                             2449.51  2456.17  2469.61  4279.29  4291.35
                             4292.84  4312.95  4313.23  4314.48  4318.21
                             4321.96  4330.38  4330.67  4330.93  4331.16
                             4373.95  4405.06  4413.44  4421.06  4423.25
                             4424.27  4428.22  4433.86  4436.91  4438.07
                             4438.82  4444.27

 Zero-point correction=                           0.386007 (Hartree/Particle)
 Thermal correction to Energy=                    0.420110
 Thermal correction to Enthalpy=                  0.421054
 Thermal correction to Gibbs Free Energy=         0.304852
 Sum of electronic and zero-point Energies=          -1254.325460
 Sum of electronic and thermal Energies=             -1254.291358
 Sum of electronic and thermal Enthalpies=           -1254.290413
 Sum of electronic and thermal Free Energies=        -1254.406616

                     E (Thermal)             CV                S
                      KCal/Mol        Cal/Mol-Kelvin    Cal/Mol-Kelvin
 Total                  263.623            111.185            244.568
 Electronic               0.000              0.000              0.000
 Translational            0.889              2.981             45.560
 Rotational               0.889              2.981             37.194
 Vibrational            261.845            105.223            161.814
 Vibration     1          0.593              1.987              8.992
 Vibration     2          0.593              1.987              7.563
 Vibration     3          0.593              1.986              7.391
 Vibration     4          0.593              1.986              6.739
 Vibration     5          0.593              1.985              6.444
 Vibration     6          0.593              1.985              6.100
 Vibration     7          0.594              1.984              5.811
 Vibration     8          0.594              1.983              5.709
 Vibration     9          0.594              1.981              5.294
 Vibration    10          0.594              1.981              5.225
 Vibration    11          0.595              1.978              4.838
 Vibration    12          0.596              1.977              4.760
 Vibration    13          0.596              1.975              4.598
 Vibration    14          0.596              1.974              4.533
 Vibration    15          0.597              1.973              4.416
 Vibration    16          0.597              1.972              4.348
 Vibration    17          0.598              1.970              4.216
 Vibration    18          0.599              1.964              3.961
 Vibration    19          0.600              1.962              3.867
 Vibration    20          0.601              1.958              3.719
 Vibration    21          0.603              1.952              3.536
 Vibration    22          0.604              1.949              3.464
 Vibration    23          0.605              1.945              3.364
 Vibration    24          0.606              1.942              3.295
 Vibration    25          0.608              1.934              3.133
 Vibration    26          0.610              1.930              3.054
 Vibration    27          0.616              1.909              2.751
 Vibration    28          0.623              1.886              2.501
 Vibration    29          0.624              1.884              2.478
 Vibration    30          0.626              1.877              2.414
 Vibration    31          0.636              1.845              2.167
 Vibration    32          0.644              1.819              2.008
 Vibration    33          0.646              1.815              1.985
 Vibration    34          0.646              1.815              1.983
 Vibration    35          0.648              1.807              1.938
 Vibration    36          0.831              1.308              0.726
 Vibration    37          0.842              1.282              0.695
 Vibration    38          0.844              1.276              0.688
 Vibration    39          0.846              1.272              0.683
 Vibration    40          0.872              1.212              0.617
 Vibration    41          0.874              1.208              0.612
 Vibration    42          0.878              1.199              0.603
 Vibration    43          0.880              1.195              0.598
 Vibration    44          0.979              0.992              0.418
 Vibration    45          0.981              0.988              0.416

                           ! Non-Optimized Parameters !
 Normal termination of Gaussian 16 at Thu Nov  5 16:43:02 2020.
