 Gaussian 16, Revision C.01,
 Gaussian 16:  ES64L-G16RevC.01  3-Jul-2019

 ----------------------------------------------------------------------
 # pbepbe/Gen pseudo=read Opt Freq EmpiricalDispersion=GD3BJ SCRF=(Solv
 ent=CH3CN)
 ----------------------------------------------------------------------

 -------------------------
 01-PbBr2_acn_22691943.out
 -------------------------
 Symbolic Z-matrix:
 Charge =  0 Multiplicity = 1

 SCF Done:  E(RPBE-PBE) =  -560.408363401     A.U. after   13 cycles
 SCF Done:  E(RPBE-PBE) =  -560.408361229     A.U. after    8 cycles
 SCF Done:  E(RPBE-PBE) =  -560.408341791     A.U. after    9 cycles
 SCF Done:  E(RPBE-PBE) =  -560.408337569     A.U. after    9 cycles
 SCF Done:  E(RPBE-PBE) =  -560.408373746     A.U. after    9 cycles
 SCF Done:  E(RPBE-PBE) =  -560.408357535     A.U. after   10 cycles
 SCF Done:  E(RPBE-PBE) =  -560.408385337     A.U. after    9 cycles
 SCF Done:  E(RPBE-PBE) =  -560.408390765     A.U. after    8 cycles
 SCF Done:  E(RPBE-PBE) =  -560.408415295     A.U. after   10 cycles
 SCF Done:  E(RPBE-PBE) =  -560.408414980     A.U. after   10 cycles
 SCF Done:  E(RPBE-PBE) =  -560.408479791     A.U. after    7 cycles
 SCF Done:  E(RPBE-PBE) =  -560.408479840     A.U. after    7 cycles
 SCF Done:  E(RPBE-PBE) =  -560.408479840     A.U. after    7 cycles
 SCF Done:  E(RPBE-PBE) =  -560.408479782     A.U. after    7 cycles
 SCF Done:  E(RPBE-PBE) =  -560.408479703     A.U. after    7 cycles
 SCF Done:  E(RPBE-PBE) =  -560.408479588     A.U. after    7 cycles
 SCF Done:  E(RPBE-PBE) =  -560.408479623     A.U. after    7 cycles
 SCF Done:  E(RPBE-PBE) =  -560.408479824     A.U. after    8 cycles
 SCF Done:  E(RPBE-PBE) =  -560.408479627     A.U. after    8 cycles
 Optimization completed.
    -- Stationary point found.
 Normal termination of Gaussian 16 at Mon Nov  2 17:55:51 2020.

 -------------------------------------------------------------------
 #N Geom=AllCheck Guess=TCheck SCRF=Check GenChk RPBEPBE/ChkBas Freq
 -------------------------------------------------------------------

 Structure from the checkpoint file:  "01-PbBr2_acn.chk"
 -------------------------
 01-PbBr2_acn_22691943.out
 -------------------------
 Charge =  0 Multiplicity = 1

                         Standard orientation:
 ---------------------------------------------------------------------
 Center     Atomic      Atomic             Coordinates (Angstroms)
 Number     Number       Type             X           Y           Z
 ---------------------------------------------------------------------
      1         82           0       -0.154219   -0.187434   -0.638251
      2         35           0        0.385375   -2.310000    1.196964
      3         35           0       -1.729489    1.360270    1.211549
      4          6           0        0.324012    4.284910   -0.338041
      5          1           0        1.357588    4.534055   -0.029165
      6          1           0       -0.155162    5.185118   -0.768367
      7          1           0       -0.255276    3.945665    0.545537
      8          6           0        0.338494    3.206479   -1.309286
      9          7           0        0.339302    2.307575   -2.067796
     10          6           0        3.955980   -1.971513   -0.337392
     11          1           0        4.677368   -1.186748   -0.038150
     12          1           0        4.508373   -2.833184   -0.758629
     13          1           0        3.377952   -2.302592    0.550157
     14          6           0        3.019556   -1.444115   -1.312544
     15          7           0        2.231356   -1.012549   -2.071488
     16          6           0       -4.669544   -0.946651    0.112996
     17          1           0       -5.491082   -0.620548   -0.553180
     18          1           0       -4.997899   -1.827718    0.696907
     19          1           0       -4.404367   -0.121345    0.805888
     20          6           0       -3.489832   -1.271517   -0.665139
     21          7           0       -2.516657   -1.513318   -1.279066
     22          6           0        3.792207    2.049897    1.892218
     23          1           0        4.726112    1.488068    1.697201
     24          1           0        3.922304    3.099114    1.563834
     25          1           0        3.576247    2.031609    2.977784
     26          6           0        2.695571    1.441816    1.164459
     27          7           0        1.810168    0.950121    0.576235
 ---------------------------------------------------------------------

 SCF Done:  E(RPBE-PBE) =  -560.408479627     A.U. after    1 cycles

 The electronic state is 1-A.
 Alpha  occ. eigenvalues --  -14.03443 -14.01845 -14.01362 -14.01282  -9.98048
 Alpha  occ. eigenvalues --   -9.96761  -9.96203  -9.96116  -9.95068  -9.94217
 Alpha  occ. eigenvalues --   -9.94085  -9.94053  -0.85631  -0.84260  -0.83777
 Alpha  occ. eigenvalues --   -0.83693  -0.71278  -0.70382  -0.70157  -0.70111
 Alpha  occ. eigenvalues --   -0.63609  -0.62837  -0.48518  -0.46509  -0.46074
 Alpha  occ. eigenvalues --   -0.45935  -0.45535  -0.41829  -0.41664  -0.41024
 Alpha  occ. eigenvalues --   -0.40851  -0.40739  -0.40659  -0.40549  -0.40542
 Alpha  occ. eigenvalues --   -0.37468  -0.34476  -0.33613  -0.33109  -0.32162
 Alpha  occ. eigenvalues --   -0.31998  -0.30806  -0.30684  -0.30465  -0.29974
 Alpha  occ. eigenvalues --   -0.29882  -0.29748  -0.25451  -0.23599  -0.22510
 Alpha  occ. eigenvalues --   -0.22133  -0.21994  -0.21682
 Alpha virt. eigenvalues --   -0.06033  -0.05658  -0.05014  -0.03207  -0.02745
 Alpha virt. eigenvalues --   -0.01974  -0.01921  -0.01437  -0.00538   0.00363
 Alpha virt. eigenvalues --    0.01047   0.01789   0.04224   0.04768   0.06367

 Mulliken charges:
               1
     1  Pb   0.852944
     2  Br  -0.594447
     3  Br  -0.592951
     4  C   -0.003437
     5  H    0.109931
     6  H    0.109428
     7  H    0.098693
     8  C   -0.048946
     9  N   -0.212536
    10  C   -0.003433
    11  H    0.111446
    12  H    0.109905
    13  H    0.098678
    14  C   -0.044965
    15  N   -0.214249
    16  C    0.003613
    17  H    0.111930
    18  H    0.112378
    19  H    0.102356
    20  C   -0.015161
    21  N   -0.231323
    22  C    0.002319
    23  H    0.120382
    24  H    0.120119
    25  H    0.120581
    26  C    0.017488
    27  N   -0.240741
 Sum of Mulliken charges =  -0.00000

 Dipole moment (field-independent basis, Debye):
    X=              7.5154    Y=              7.5354    Z=              0.8789  Tot=             10.6787
 Quadrupole moment (field-independent basis, Debye-Ang):
   XX=            -48.2943   YY=            -99.9532   ZZ=           -131.7842
   XY=             16.8348   XZ=             17.4310   YZ=              9.3265

  Exact polarizability:     259.070     -17.994     241.137      -2.215       3.825     195.886
 Approx polarizability:     335.626     -35.389     324.850      -5.798      12.468     306.775

                      1                      2                      3
                      A                      A                      A
 Frequencies --     18.6031                19.7612                24.6079
 Red. masses --      4.6695                 4.5059                 3.9527
 Frc consts  --      0.0010                 0.0010                 0.0014
 IR Inten    --     11.5710                 8.7788                 5.8315

                      4                      5                      6
                      A                      A                      A
 Frequencies --     31.9197                39.3073                39.6988
 Red. masses --      4.8971                 9.0849                 6.6401
 Frc consts  --      0.0029                 0.0083                 0.0062
 IR Inten    --      5.6814                 1.5592                 5.4919

                      7                      8                      9
                      A                      A                      A
 Frequencies --     42.2750                50.0450                54.4019
 Red. masses --      5.5489                 2.9945                 8.1408
 Frc consts  --      0.0058                 0.0044                 0.0142
 IR Inten    --      0.1522                 0.3316                 6.6352

                     10                     11                     12
                      A                      A                      A
 Frequencies --     58.8127                60.8403                63.8719
 Red. masses --      7.4962                10.7089                 4.6866
 Frc consts  --      0.0153                 0.0234                 0.0113
 IR Inten    --      4.4277                 8.9804                 9.2705

                     13                     14                     15
                      A                      A                      A
 Frequencies --     65.4494                69.6527                71.3325
 Red. masses --      3.2912                 1.7039                 3.1132
 Frc consts  --      0.0083                 0.0049                 0.0093
 IR Inten    --      5.5135                10.0539                23.8686

                     16                     17                     18
                      A                      A                      A
 Frequencies --     73.9490                85.4668               102.9235
 Red. masses --      3.1078                 1.0321                 1.1463
 Frc consts  --      0.0100                 0.0044                 0.0072
 IR Inten    --     20.6271                 0.0430                 5.3891

                     19                     20                     21
                      A                      A                      A
 Frequencies --    107.1466               109.4867               111.3008
 Red. masses --     12.3754                 9.9380                 3.1026
 Frc consts  --      0.0837                 0.0702                 0.0226
 IR Inten    --    113.8295                65.6968                57.3745

                     22                     23                     24
                      A                      A                      A
 Frequencies --    116.2460               124.0258               126.1649
 Red. masses --      6.7326                 5.5854                 2.5953
 Frc consts  --      0.0536                 0.0506                 0.0243
 IR Inten    --     14.0126                 8.1191                32.5856

                     25                     26                     27
                      A                      A                      A
 Frequencies --    132.7585               135.1290               171.9611
 Red. masses --      3.4487                25.7333                10.1494
 Frc consts  --      0.0358                 0.2768                 0.1768
 IR Inten    --      5.7838                38.1633                 1.1464

                     28                     29                     30
                      A                      A                      A
 Frequencies --    380.4652               382.1622               383.1717
 Red. masses --      3.6193                 3.6178                 3.6088
 Frc consts  --      0.3087                 0.3113                 0.3122
 IR Inten    --      0.4600                 1.4814                 1.4864

                     31                     32                     33
                      A                      A                      A
 Frequencies --    383.6472               385.3147               386.0532
 Red. masses --      3.5512                 3.6734                 3.6007
 Frc consts  --      0.3080                 0.3213                 0.3162
 IR Inten    --      1.1412                 0.5682                 2.1050

                     34                     35                     36
                      A                      A                      A
 Frequencies --    386.2508               389.2876               938.0956
 Red. masses --      3.6038                 3.6517                 4.1497
 Frc consts  --      0.3168                 0.3260                 2.1516
 IR Inten    --      4.3270                 0.5518                 0.6095

                     37                     38                     39
                      A                      A                      A
 Frequencies --    938.7361               940.7905               954.1036
 Red. masses --      4.1609                 4.1431                 4.2954
 Frc consts  --      2.1604                 2.1605                 2.3038
 IR Inten    --      0.5575                 1.6075                10.4894

                     40                     41                     42
                      A                      A                      A
 Frequencies --    988.8698               991.1365               991.2953
 Red. masses --      1.5015                 1.4936                 1.4928
 Frc consts  --      0.8651                 0.8645                 0.8643
 IR Inten    --     13.4438                24.2909                 3.0141

                     43                     44                     45
                      A                      A                      A
 Frequencies --    992.6937               994.0769               997.9531
 Red. masses --      1.4870                 1.4845                 1.4915
 Frc consts  --      0.8634                 0.8643                 0.8752
 IR Inten    --      8.2569                 5.1009                 6.2027

                     46                     47                     48
                      A                      A                      A
 Frequencies --    999.3407              1000.4700              1312.3654
 Red. masses --      1.4874                 1.4823                 1.2654
 Frc consts  --      0.8752                 0.8742                 1.2840
 IR Inten    --      6.1353                 5.0955                 8.5268

                     49                     50                     51
                      A                      A                      A
 Frequencies --   1313.8524              1314.7019              1321.6355
 Red. masses --      1.2642                 1.2613                 1.2618
 Frc consts  --      1.2857                 1.2844                 1.2986
 IR Inten    --     20.4601                13.5755                 4.1974

                     52                     53                     54
                      A                      A                      A
 Frequencies --   1364.6475              1366.3302              1366.8859
 Red. masses --      1.0391                 1.0360                 1.0352
 Frc consts  --      1.1401                 1.1395                 1.1395
 IR Inten    --     11.9755                 5.2205                10.7805

                     55                     56                     57
                      A                      A                      A
 Frequencies --   1367.6720              1368.3510              1370.1225
 Red. masses --      1.0355                 1.0382                 1.0358
 Frc consts  --      1.1412                 1.1454                 1.1456
 IR Inten    --     19.4288                14.8488                17.4624

                     58                     59                     60
                      A                      A                      A
 Frequencies --   1370.4449              1371.6008              2261.0332
 Red. masses --      1.0357                 1.0384                12.5298
 Frc consts  --      1.1461                 1.1510                37.7405
 IR Inten    --     21.9719                25.1729                90.1640

                     61                     62                     63
                      A                      A                      A
 Frequencies --   2261.8384              2263.3348              2301.9138
 Red. masses --     12.5319                12.5358                12.5588
 Frc consts  --     37.7738                37.8354                39.2081
 IR Inten    --     69.1831               107.4412               146.0743

                     64                     65                     66
                      A                      A                      A
 Frequencies --   2978.5095              2979.4504              2980.9641
 Red. masses --      1.0362                 1.0361                 1.0362
 Frc consts  --      5.4162                 5.4193                 5.4250
 IR Inten    --      7.6733                 7.1378                 6.2852

                     67                     68                     69
                      A                      A                      A
 Frequencies --   2996.6647              3070.8417              3071.9867
 Red. masses --      1.0342                 1.1003                 1.1002
 Frc consts  --      5.4719                 6.1132                 6.1171
 IR Inten    --      1.8191                 9.5412                 8.6211

                     70                     71                     72
                      A                      A                      A
 Frequencies --   3073.7721              3089.8352              3090.4360
 Red. masses --      1.0999                 1.1029                 1.1028
 Frc consts  --      6.1229                 6.2036                 6.2058
 IR Inten    --      9.9868                 0.5689                 1.4638

                     73                     74                     75
                      A                      A                      A
 Frequencies --   3092.3750              3092.9950              3093.7221
 Red. masses --      1.1026                 1.1027                 1.1031
 Frc consts  --      6.2123                 6.2153                 6.2203
 IR Inten    --      2.9843                 3.9391                 1.7065

 - Thermochemistry -
 -------------------
 Temperature   298.150 Kelvin.  Pressure   1.00000 Atm.
 Atom     1 has atomic number 82 and mass 207.97660

 Molecular mass:   529.91947 amu.
 Principal axes and moments of inertia in atomic units:
                           1         2         3
     Eigenvalues --  6800.838997857.86531**********
           X            0.98702   0.15767   0.03034
           Y           -0.15843   0.98707   0.02443
           Z           -0.02610  -0.02892   0.99924
 This molecule is an asymmetric top.
 Rotational symmetry number  1.
 Warning -- assumption of classical behavior for rotation
           may cause significant error
 Rotational temperatures (Kelvin)      0.01274     0.01102     0.00827
 Rotational constants (GHZ):           0.26537     0.22967     0.17228
 Zero-point vibrational energy     471444.3 (Joules/Mol)
                                  112.67790 (Kcal/Mol)
 Warning -- explicit consideration of  35 degrees of freedom as
           vibrations may cause significant error
 Vibrational temperatures:     26.77    28.43    35.41    45.93    56.55
          (Kelvin)             57.12    60.82    72.00    78.27    84.62
                               87.54    91.90    94.17   100.21   102.63
                              106.40   122.97   148.08   154.16   157.53
                              160.14   167.25   178.45   181.52   191.01
                              194.42   247.41   547.40   549.85   551.30
                              551.98   554.38   555.44   555.73   560.10
                             1349.71  1350.63  1353.59  1372.74  1422.76
                             1426.02  1426.25  1428.26  1430.25  1435.83
                             1437.83  1439.45  1888.20  1890.34  1891.56
                             1901.54  1963.42  1965.84  1966.64  1967.77
                             1968.75  1971.30  1971.76  1973.43  3253.12
                             3254.28  3256.43  3311.94  4285.41  4286.76
                             4288.94  4311.53  4418.26  4419.90  4422.47
                             4445.58  4446.45  4449.24  4450.13  4451.18

 Zero-point correction=                           0.179564 (Hartree/Particle)
 Thermal correction to Energy=                    0.206660
 Thermal correction to Enthalpy=                  0.207604
 Thermal correction to Gibbs Free Energy=         0.110744
 Sum of electronic and zero-point Energies=           -560.228916
 Sum of electronic and thermal Energies=              -560.201819
 Sum of electronic and thermal Enthalpies=            -560.200875
 Sum of electronic and thermal Free Energies=         -560.297736

                     E (Thermal)             CV                S
                      KCal/Mol        Cal/Mol-Kelvin    Cal/Mol-Kelvin
 Total                  129.681             77.220            203.860
 Electronic               0.000              0.000              0.000
 Translational            0.889              2.981             44.689
 Rotational               0.889              2.981             34.681
 Vibrational            127.904             71.259            124.491
 Vibration     1          0.593              1.986              6.778
 Vibration     2          0.593              1.986              6.658
 Vibration     3          0.593              1.985              6.223
 Vibration     4          0.594              1.983              5.706
 Vibration     5          0.594              1.981              5.294
 Vibration     6          0.594              1.981              5.274
 Vibration     7          0.595              1.980              5.150
 Vibration     8          0.595              1.978              4.816
 Vibration     9          0.596              1.976              4.651
 Vibration    10          0.596              1.974              4.497
 Vibration    11          0.597              1.973              4.430
 Vibration    12          0.597              1.972              4.334
 Vibration    13          0.597              1.971              4.286
 Vibration    14          0.598              1.969              4.163
 Vibration    15          0.598              1.968              4.116
 Vibration    16          0.599              1.966              4.045
 Vibration    17          0.601              1.959              3.761
 Vibration    18          0.605              1.947              3.398
 Vibration    19          0.606              1.944              3.320
 Vibration    20          0.606              1.942              3.278
 Vibration    21          0.607              1.940              3.246
 Vibration    22          0.608              1.936              3.162
 Vibration    23          0.610              1.929              3.037
 Vibration    24          0.611              1.927              3.004
 Vibration    25          0.613              1.921              2.906
 Vibration    26          0.613              1.918              2.872
 Vibration    27          0.626              1.877              2.414
 Vibration    28          0.750              1.512              1.037
 Vibration    29          0.752              1.508              1.031
 Vibration    30          0.752              1.506              1.027
 Vibration    31          0.753              1.505              1.025
 Vibration    32          0.754              1.502              1.018
 Vibration    33          0.755              1.500              1.015
 Vibration    34          0.755              1.500              1.015
 Vibration    35          0.757              1.493              1.003

                           ! Non-Optimized Parameters !
 Normal termination of Gaussian 16 at Mon Nov  2 18:02:03 2020.
