 Gaussian 16, Revision C.01,
 Gaussian 16:  ES64L-G16RevC.01  3-Jul-2019

 ----------------------------------------------------------------------
 # pbepbe/Gen pseudo=read Opt=(calcfc,cartesian) Freq EmpiricalDispersi
 on=GD3BJ SCRF=(Solvent=n,n-DiMethylFormamide)
 ----------------------------------------------------------------------

 -------------
 PbBr2_DMF.log
 -------------
 Symbolic Z-matrix:
 Charge =  0 Multiplicity = 1

 SCF Done:  E(RPBE-PBE) =  -1022.97145961     A.U. after   14 cycles
 SCF Done:  E(RPBE-PBE) =  -1022.97276672     A.U. after   10 cycles
 SCF Done:  E(RPBE-PBE) =  -1022.97316330     A.U. after   11 cycles
 SCF Done:  E(RPBE-PBE) =  -1022.97363488     A.U. after   10 cycles
 SCF Done:  E(RPBE-PBE) =  -1022.97339005     A.U. after   10 cycles
 SCF Done:  E(RPBE-PBE) =  -1022.97343823     A.U. after   10 cycles
 SCF Done:  E(RPBE-PBE) =  -1022.97365950     A.U. after    7 cycles
 SCF Done:  E(RPBE-PBE) =  -1022.97350351     A.U. after   10 cycles
 SCF Done:  E(RPBE-PBE) =  -1022.97342776     A.U. after   10 cycles
 SCF Done:  E(RPBE-PBE) =  -1022.97367904     A.U. after    9 cycles
 SCF Done:  E(RPBE-PBE) =  -1022.97446674     A.U. after    1 cycles
 SCF Done:  E(RPBE-PBE) =  -1022.97429790     A.U. after    9 cycles
 SCF Done:  E(RPBE-PBE) =  -1022.97428938     A.U. after    9 cycles
 SCF Done:  E(RPBE-PBE) =  -1022.96283892     A.U. after   12 cycles
 SCF Done:  E(RPBE-PBE) =  -1022.97446658     A.U. after    4 cycles
 SCF Done:  E(RPBE-PBE) =  -1022.97434460     A.U. after    9 cycles
 SCF Done:  E(RPBE-PBE) =  -1022.97433060     A.U. after    9 cycles
 SCF Done:  E(RPBE-PBE) =  -1022.96673717     A.U. after   12 cycles
 SCF Done:  E(RPBE-PBE) =  -1022.97446638     A.U. after    4 cycles
 Optimization completed.
    -- Stationary point found.
 Normal termination of Gaussian 16 at Fri Oct 16 00:26:16 2020.

 -------------------------------------------------------------------
 #N Geom=AllCheck Guess=TCheck SCRF=Check GenChk RPBEPBE/ChkBas Freq
 -------------------------------------------------------------------

 Structure from the checkpoint file:  "01-PbBr2_DMF.chk"
 -------------
 PbBr2_DMF.log
 -------------
 Charge =  0 Multiplicity = 1

                         Standard orientation:
 ---------------------------------------------------------------------
 Center     Atomic      Atomic             Coordinates (Angstroms)
 Number     Number       Type             X           Y           Z
 ---------------------------------------------------------------------
      1         82           0        0.174496   -0.655573   -0.256278
      2         35           0        1.610721   -2.298675   -2.165388
      3         35           0        1.484622   -1.744852    2.190798
      4          8           0       -0.718890    0.846390   -2.217591
      5          6           0       -1.431034    1.873814   -2.168914
      6          1           0       -1.039182    2.875530   -2.472586
      7          7           0       -2.722789    1.918621   -1.775640
      8          6           0       -3.424524    0.710690   -1.367316
      9          6           0       -3.452999    3.175345   -1.724335
     10          1           0       -2.786332    4.003752   -2.027691
     11          1           0       -3.817680    3.367832   -0.694252
     12          1           0       -4.328868    3.146200   -2.404282
     13          1           0       -3.630172    0.727988   -0.277250
     14          1           0       -4.385702    0.631708   -1.913155
     15          1           0       -2.787911   -0.159428   -1.603489
     16          8           0       -1.187287    1.312781    1.159463
     17          6           0       -1.660051    2.450037    1.366363
     18          1           0       -2.643760    2.590733    1.879490
     19          7           0       -1.087156    3.624666    1.017675
     20          6           0        0.209779    3.667436    0.358225
     21          6           0       -1.720626    4.895225    1.336743
     22          1           0       -2.683461    4.712107    1.848635
     23          1           0       -1.909999    5.476213    0.410492
     24          1           0       -1.068147    5.498283    2.001373
     25          1           0        0.146975    4.288775   -0.558030
     26          1           0        0.970958    4.116648    1.030696
     27          1           0        0.518342    2.641907    0.093848
     28          8           0        2.010430    0.993120   -0.407332
     29          6           0        2.970610    1.064450    0.409856
     30          1           0        3.099825    0.315667    1.224993
     31          7           0        3.899740    2.031206    0.376595
     32          6           0        3.853525    3.086599   -0.627536
     33          6           0        4.979157    2.071672    1.353324
     34          1           0        4.883002    1.217138    2.047327
     35          1           0        4.936623    3.016422    1.932629
     36          1           0        5.961292    2.015678    0.841757
     37          1           0        3.683612    4.069397   -0.141476
     38          1           0        4.815184    3.124938   -1.177170
     39          1           0        3.028342    2.868122   -1.327081
     40          8           0       -1.844307   -2.387006   -0.350378
     41          6           0       -3.027811   -2.391051    0.058965
     42          1           0       -3.870643   -2.730595   -0.592872
     43          7           0       -3.434463   -2.010308    1.286602
     44          6           0       -2.466162   -1.559475    2.282044
     45          6           0       -4.848044   -1.953033    1.628386
     46          1           0       -5.449121   -2.317602    0.774978
     47          1           0       -5.149487   -0.909728    1.857282
     48          1           0       -5.058873   -2.582834    2.516367
     49          1           0       -2.294319   -0.464868    2.205455
     50          1           0       -2.844119   -1.810074    3.290811
     51          1           0       -1.499880   -2.071267    2.113867
 ---------------------------------------------------------------------

 SCF Done:  E(RPBE-PBE) =  -1022.97446638     A.U. after    1 cycles

 The electronic state is 1-A.
 Alpha  occ. eigenvalues --  -18.77229 -18.75864 -18.75745 -18.75604 -14.06098
 Alpha  occ. eigenvalues --  -14.05577 -14.05394 -14.05200 -10.00304 -10.00064
 Alpha  occ. eigenvalues --   -9.99985  -9.99687  -9.94057  -9.94049  -9.93916
 Alpha  occ. eigenvalues --   -9.93815  -9.93576  -9.93370  -9.93074  -9.92562
 Alpha  occ. eigenvalues --   -0.96657  -0.95832  -0.95549  -0.95429  -0.87883
 Alpha  occ. eigenvalues --   -0.87436  -0.87266  -0.87001  -0.67077  -0.66947
 Alpha  occ. eigenvalues --   -0.66707  -0.66405  -0.65059  -0.64646  -0.64508
 Alpha  occ. eigenvalues --   -0.64296  -0.62028  -0.61461  -0.52133  -0.51944
 Alpha  occ. eigenvalues --   -0.51662  -0.51375  -0.48272  -0.47151  -0.46943
 Alpha  occ. eigenvalues --   -0.46774  -0.46415  -0.43991  -0.43933  -0.43643
 Alpha  occ. eigenvalues --   -0.43370  -0.43051  -0.42685  -0.42394  -0.40951
 Alpha  occ. eigenvalues --   -0.38139  -0.37868  -0.37518  -0.36604  -0.36512
 Alpha  occ. eigenvalues --   -0.36357  -0.36278  -0.36191  -0.36145  -0.35752
 Alpha  occ. eigenvalues --   -0.35704  -0.35595  -0.35261  -0.34974  -0.34715
 Alpha  occ. eigenvalues --   -0.34427  -0.34178  -0.34152  -0.33466  -0.33123
 Alpha  occ. eigenvalues --   -0.25347  -0.24520  -0.24126  -0.23408  -0.23117
 Alpha  occ. eigenvalues --   -0.22998  -0.22729  -0.22281  -0.22208  -0.21716
 Alpha  occ. eigenvalues --   -0.21445  -0.21028  -0.20720  -0.19632
 Alpha virt. eigenvalues --   -0.04517  -0.04090  -0.03775  -0.03237  -0.01822
 Alpha virt. eigenvalues --   -0.00715  -0.00444   0.01540   0.03061   0.03496
 Alpha virt. eigenvalues --    0.04860   0.05899   0.06127   0.06781   0.07136

 Mulliken charges:
               1
     1  Pb   0.824173
     2  Br  -0.644263
     3  Br  -0.650469
     4  O   -0.331265
     5  C    0.192237
     6  H    0.037828
     7  N   -0.189397
     8  C   -0.001516
     9  C    0.011556
    10  H    0.066865
    11  H    0.061756
    12  H    0.067629
    13  H    0.068191
    14  H    0.063697
    15  H    0.055801
    16  O   -0.319982
    17  C    0.202739
    18  H    0.031397
    19  N   -0.197441
    20  C   -0.011976
    21  C    0.017106
    22  H    0.063620
    23  H    0.064959
    24  H    0.065004
    25  H    0.062514
    26  H    0.066785
    27  H    0.055823
    28  O   -0.343788
    29  C    0.239778
    30  H    0.031502
    31  N   -0.189602
    32  C    0.011295
    33  C    0.020433
    34  H    0.070052
    35  H    0.067629
    36  H    0.068818
    37  H    0.069670
    38  H    0.068680
    39  H    0.064578
    40  O   -0.331675
    41  C    0.195951
    42  H    0.033900
    43  N   -0.189277
    44  C   -0.006723
    45  C    0.018909
    46  H    0.062497
    47  H    0.063709
    48  H    0.066621
    49  H    0.071612
    50  H    0.054795
    51  H    0.047265
 Sum of Mulliken charges =  -0.00000

 Dipole moment (field-independent basis, Debye):
    X=            -13.1475    Y=             23.2358    Z=              4.4810  Tot=             27.0709
 Quadrupole moment (field-independent basis, Debye-Ang):
   XX=            -95.8094   YY=           -139.0622   ZZ=           -187.8961
   XY=             27.5603   XZ=              3.2215   YZ=             -6.6124

  Exact polarizability:     387.175      -4.370     351.494      -9.358      -0.169     312.389
 Approx polarizability:     482.781     -18.317     445.641     -21.365       6.963     422.560

                      1                      2                      3
                      A                      A                      A
 Frequencies --      7.9189                15.1391                20.5851
 Red. masses --      6.7263                 4.1723                 3.8155
 Frc consts  --      0.0002                 0.0006                 0.0010
 IR Inten    --      1.0962                 6.4342                 0.8943

                      4                      5                      6
                      A                      A                      A
 Frequencies --     28.4004                31.2707                35.3210
 Red. masses --      7.6847                 8.7497                 6.3779
 Frc consts  --      0.0037                 0.0050                 0.0047
 IR Inten    --      1.8494                 1.4256                 0.4174

                      7                      8                      9
                      A                      A                      A
 Frequencies --     39.6502                41.6417                42.7136
 Red. masses --      3.8068                 6.4687                 4.3827
 Frc consts  --      0.0035                 0.0066                 0.0047
 IR Inten    --      0.9642                 1.3954                 1.2967

                     10                     11                     12
                      A                      A                      A
 Frequencies --     46.6599                50.5563                55.3088
 Red. masses --      5.8669                 5.1235                 5.6873
 Frc consts  --      0.0075                 0.0077                 0.0103
 IR Inten    --      0.9362                 0.7248                 3.3404

                     13                     14                     15
                      A                      A                      A
 Frequencies --     60.5500                61.8415                65.0810
 Red. masses --      4.6936                 4.3640                 5.6084
 Frc consts  --      0.0101                 0.0098                 0.0140
 IR Inten    --      5.1777                 1.2941                 3.4083

                     16                     17                     18
                      A                      A                      A
 Frequencies --     73.5522                80.6462                86.0468
 Red. masses --      5.2565                 4.2469                 3.3711
 Frc consts  --      0.0168                 0.0163                 0.0147
 IR Inten    --      9.6025                12.3589                 3.9836

                     19                     20                     21
                      A                      A                      A
 Frequencies --     87.8437                97.1704                99.8639
 Red. masses --      6.6434                 5.1266                 4.4348
 Frc consts  --      0.0302                 0.0285                 0.0261
 IR Inten    --     14.3584                28.2847                11.9973

                     22                     23                     24
                      A                      A                      A
 Frequencies --    106.8451               109.9850               114.8197
 Red. masses --      5.1248                 7.2559                 4.6886
 Frc consts  --      0.0345                 0.0517                 0.0364
 IR Inten    --     43.2541                57.1098                68.2474

                     25                     26                     27
                      A                      A                      A
 Frequencies --    120.0225               124.5162               134.7466
 Red. masses --     10.3043                 5.4090                 7.0567
 Frc consts  --      0.0875                 0.0494                 0.0755
 IR Inten    --     32.8086                28.3568                29.5920

                     28                     29                     30
                      A                      A                      A
 Frequencies --    139.3553               161.5974               174.5314
 Red. masses --      1.2925                 1.1783                 1.5376
 Frc consts  --      0.0148                 0.0181                 0.0276
 IR Inten    --      9.4590                 2.6992                 1.0443

                     31                     32                     33
                      A                      A                      A
 Frequencies --    176.7402               180.1803               183.0330
 Red. masses --      1.3260                 1.3098                 1.3210
 Frc consts  --      0.0244                 0.0251                 0.0261
 IR Inten    --     11.7467                 1.9657                 2.1770

                     34                     35                     36
                      A                      A                      A
 Frequencies --    202.4901               207.5153               246.9006
 Red. masses --      1.2097                 1.0634                 1.8177
 Frc consts  --      0.0292                 0.0270                 0.0653
 IR Inten    --      1.2873                 0.3266                 0.5680

                     37                     38                     39
                      A                      A                      A
 Frequencies --    252.0229               258.1221               262.1509
 Red. masses --      1.7410                 1.8524                 2.0416
 Frc consts  --      0.0652                 0.0727                 0.0827
 IR Inten    --      1.4444                 0.4377                 0.7345

                     40                     41                     42
                      A                      A                      A
 Frequencies --    306.0984               311.8900               315.0565
 Red. masses --      3.3849                 3.7796                 3.5654
 Frc consts  --      0.1869                 0.2166                 0.2085
 IR Inten    --     21.3658                10.4107                26.7301

                     43                     44                     45
                      A                      A                      A
 Frequencies --    343.9508               351.2079               367.3598
 Red. masses --      4.1315                 2.4498                 2.5103
 Frc consts  --      0.2880                 0.1780                 0.1996
 IR Inten    --     62.5989                50.8379                24.1243

                     46                     47                     48
                      A                      A                      A
 Frequencies --    370.3321               371.7393               388.4495
 Red. masses --      2.3971                 2.4166                 2.3192
 Frc consts  --      0.1937                 0.1968                 0.2062
 IR Inten    --     35.9772                22.7632                 8.6717

                     49                     50                     51
                      A                      A                      A
 Frequencies --    389.5649               390.4631               398.6846
 Red. masses --      2.3498                 2.3419                 2.3337
 Frc consts  --      0.2101                 0.2104                 0.2186
 IR Inten    --      8.4773                16.6775                18.1621

                     52                     53                     54
                      A                      A                      A
 Frequencies --    642.1982               642.9317               644.8464
 Red. masses --      5.1598                 5.1200                 5.1189
 Frc consts  --      1.2538                 1.2470                 1.2541
 IR Inten    --     48.5183                28.9867                36.0693

                     55                     56                     57
                      A                      A                      A
 Frequencies --    655.8420               856.2133               858.5599
 Red. masses --      5.4999                 3.6562                 3.6636
 Frc consts  --      1.3938                 1.5792                 1.5911
 IR Inten    --     61.5785                 2.6584                 1.6153

                     58                     59                     60
                      A                      A                      A
 Frequencies --    862.5726               863.2029               959.2814
 Red. masses --      3.6195                 3.7165                 1.5837
 Frc consts  --      1.5867                 1.6316                 0.8586
 IR Inten    --      0.0993                 1.3090                 2.6329

                     61                     62                     63
                      A                      A                      A
 Frequencies --    959.9537               965.3889               985.1949
 Red. masses --      1.5737                 1.5570                 1.5113
 Frc consts  --      0.8544                 0.8549                 0.8643
 IR Inten    --      8.4656                 1.2893                 1.2945

                     64                     65                     66
                      A                      A                      A
 Frequencies --   1031.4365              1032.9049              1033.6050
 Red. masses --      1.3763                 1.3646                 1.3683
 Frc consts  --      0.8627                 0.8578                 0.8612
 IR Inten    --     13.3377                 7.9530                 5.8775

                     67                     68                     69
                      A                      A                      A
 Frequencies --   1035.4200              1066.7697              1069.8772
 Red. masses --      1.3534                 1.6440                 1.5901
 Frc consts  --      0.8549                 1.1023                 1.0724
 IR Inten    --      3.8407               135.9229               151.5185

                     70                     71                     72
                      A                      A                      A
 Frequencies --   1071.2521              1072.9557              1074.9309
 Red. masses --      1.4612                 1.2380                 1.3007
 Frc consts  --      0.9880                 0.8397                 0.8855
 IR Inten    --     24.3733                 1.6278                36.8755

                     73                     74                     75
                      A                      A                      A
 Frequencies --   1075.9278              1076.5220              1081.3930
 Red. masses --      1.2736                 1.2903                 1.5989
 Frc consts  --      0.8687                 0.8810                 1.1016
 IR Inten    --      6.3598                 3.0512                99.1819

                     76                     77                     78
                      A                      A                      A
 Frequencies --   1118.2022              1122.3561              1122.7304
 Red. masses --      1.3958                 1.4034                 1.3940
 Frc consts  --      1.0283                 1.0416                 1.0353
 IR Inten    --      2.8274                 0.7185                 1.5115

                     79                     80                     81
                      A                      A                      A
 Frequencies --   1123.4930              1242.6963              1246.4184
 Red. masses --      1.3923                 3.7904                 3.5324
 Frc consts  --      1.0354                 3.4487                 3.2334
 IR Inten    --      2.4331                27.4394                16.1601

                     82                     83                     84
                      A                      A                      A
 Frequencies --   1246.7104              1247.5195              1345.4485
 Red. masses --      3.3919                 3.9305                 1.2900
 Frc consts  --      3.1062                 3.6041                 1.3759
 IR Inten    --     16.0290                13.7717               144.3317

                     85                     86                     87
                      A                      A                      A
 Frequencies --   1350.0793              1351.8080              1353.6026
 Red. masses --      1.3207                 1.3285                 1.2976
 Frc consts  --      1.4183                 1.4304                 1.4008
 IR Inten    --     55.6984                37.6578                33.3360

                     88                     89                     90
                      A                      A                      A
 Frequencies --   1359.1838              1366.0354              1367.3073
 Red. masses --      1.1711                 1.1514                 1.1606
 Frc consts  --      1.2747                 1.2659                 1.2784
 IR Inten    --     20.2884                14.3646                16.5577

                     91                     92                     93
                      A                      A                      A
 Frequencies --   1370.1607              1372.5388              1375.9431
 Red. masses --      1.1467                 1.5964                 1.6001
 Frc consts  --      1.2684                 1.7719                 1.7848
 IR Inten    --      7.8385                 8.4281                12.0825

                     94                     95                     96
                      A                      A                      A
 Frequencies --   1377.7364              1381.7531              1385.7790
 Red. masses --      1.6432                 1.4887                 1.2127
 Frc consts  --      1.8377                 1.6747                 1.3722
 IR Inten    --     30.1942                 5.7829                87.0953

                     97                     98                     99
                      A                      A                      A
 Frequencies --   1386.0660              1387.9528              1388.8833
 Red. masses --      1.1914                 1.2031                 1.1312
 Frc consts  --      1.3485                 1.3656                 1.2856
 IR Inten    --     23.1547                26.1279                21.3107

                    100                    101                    102
                      A                      A                      A
 Frequencies --   1389.4105              1390.9705              1391.8513
 Red. masses --      1.0471                 1.1148                 1.0549
 Frc consts  --      1.1909                 1.2708                 1.2041
 IR Inten    --      4.2666                39.4555                 2.4990

                    103                    104                    105
                      A                      A                      A
 Frequencies --   1392.1013              1407.0937              1408.8191
 Red. masses --      1.0609                 1.0958                 1.0515
 Frc consts  --      1.2113                 1.2783                 1.2296
 IR Inten    --     24.3816                13.3021                34.3927

                    106                    107                    108
                      A                      A                      A
 Frequencies --   1411.9741              1412.9163              1416.7130
 Red. masses --      1.0878                 1.0759                 1.0660
 Frc consts  --      1.2778                 1.2655                 1.2606
 IR Inten    --     14.9852                15.0025                15.7027

                    109                    110                    111
                      A                      A                      A
 Frequencies --   1420.2727              1423.0425              1429.1213
 Red. masses --      1.0511                 1.0474                 1.0583
 Frc consts  --      1.2492                 1.2497                 1.2735
 IR Inten    --     36.5144                25.0815                50.7958

                    112                    113                    114
                      A                      A                      A
 Frequencies --   1469.9604              1471.5249              1474.5967
 Red. masses --      1.8783                 2.0217                 1.8370
 Frc consts  --      2.3913                 2.5793                 2.3535
 IR Inten    --     87.0692                21.5212                66.0976

                    115                    116                    117
                      A                      A                      A
 Frequencies --   1476.2582              1639.0787              1653.5741
 Red. masses --      1.7906                 5.8215                 6.7577
 Frc consts  --      2.2991                 9.2148                10.8867
 IR Inten    --     18.9396              1547.7272               353.8330

                    118                    119                    120
                      A                      A                      A
 Frequencies --   1661.1758              1667.8251              2925.1257
 Red. masses --      7.0156                 6.8526                 1.0852
 Frc consts  --     11.4063                11.2308                 5.4709
 IR Inten    --    681.0326              1763.6844                99.2639

                    121                    122                    123
                      A                      A                      A
 Frequencies --   2930.1538              2936.2545              2963.3779
 Red. masses --      1.0856                 1.0855                 1.0363
 Frc consts  --      5.4918                 5.5138                 5.3618
 IR Inten    --    115.3039                94.1234                19.2651

                    124                    125                    126
                      A                      A                      A
 Frequencies --   2963.4553              2966.8623              2967.4651
 Red. masses --      1.0361                 1.0367                 1.0375
 Frc consts  --      5.3612                 5.3765                 5.3831
 IR Inten    --     23.4698                84.5205                69.2703

                    127                    128                    129
                      A                      A                      A
 Frequencies --   2967.7798              2970.1115              2972.0738
 Red. masses --      1.0347                 1.0825                 1.0350
 Frc consts  --      5.3697                 5.6263                 5.3865
 IR Inten    --     72.3824                33.4728                26.4125

                    130                    131                    132
                      A                      A                      A
 Frequencies --   2975.2816              2975.9314              3032.3396
 Red. masses --      1.0362                 1.0435                 1.1031
 Frc consts  --      5.4042                 5.4450                 5.9763
 IR Inten    --     68.9946               100.1129                54.5423

                    133                    134                    135
                      A                      A                      A
 Frequencies --   3037.9173              3038.0341              3038.3669
 Red. masses --      1.1044                 1.1045                 1.1047
 Frc consts  --      6.0054                 6.0060                 6.0086
 IR Inten    --     30.9170                26.0813                 3.5193

                    136                    137                    138
                      A                      A                      A
 Frequencies --   3044.7624              3049.7429              3050.2219
 Red. masses --      1.1043                 1.1047                 1.1050
 Frc consts  --      6.0318                 6.0537                 6.0574
 IR Inten    --     36.9500                12.8501                 1.5189

                    139                    140                    141
                      A                      A                      A
 Frequencies --   3052.9736              3083.6819              3085.6511
 Red. masses --      1.1010                 1.1024                 1.1025
 Frc consts  --      6.0461                 6.1763                 6.1845
 IR Inten    --      4.6411                12.2131                10.9633

                    142                    143                    144
                      A                      A                      A
 Frequencies --   3086.2569              3087.2460              3094.3840
 Red. masses --      1.1029                 1.1046                 1.1029
 Frc consts  --      6.1895                 6.2028                 6.2219
 IR Inten    --     15.8662                 0.4230                 7.6016

                    145                    146                    147
                      A                      A                      A
 Frequencies --   3108.5112              3111.0684              3115.5096
 Red. masses --      1.1012                 1.1019                 1.1006
 Frc consts  --      6.2695                 6.2836                 6.2941
 IR Inten    --      0.7510                 1.0158                14.4496

 - Thermochemistry -
 -------------------
 Temperature   298.150 Kelvin.  Pressure   1.00000 Atm.
 Atom     1 has atomic number 82 and mass 207.97660

 Molecular mass:   658.02433 amu.
 Principal axes and moments of inertia in atomic units:
                           1         2         3
     Eigenvalues --  ******************************
           X            0.96146   0.27494  -0.00048
           Y           -0.27487   0.96118  -0.02424
           Z           -0.00620   0.02343   0.99971
 This molecule is an asymmetric top.
 Rotational symmetry number  1.
 Warning -- assumption of classical behavior for rotation
           may cause significant error
 Rotational temperatures (Kelvin)      0.00642     0.00584     0.00457
 Rotational constants (GHZ):           0.13372     0.12178     0.09529
 Zero-point vibrational energy    1056521.1 (Joules/Mol)
                                  252.51461 (Kcal/Mol)
 Warning -- explicit consideration of  51 degrees of freedom as
           vibrations may cause significant error
 Vibrational temperatures:     11.39    21.78    29.62    40.86    44.99
          (Kelvin)             50.82    57.05    59.91    61.46    67.13
                               72.74    79.58    87.12    88.98    93.64
                              105.83   116.03   123.80   126.39   139.81
                              143.68   153.73   158.24   165.20   172.69
                              179.15   193.87   200.50   232.50   251.11
                              254.29   259.24   263.34   291.34   298.57
                              355.23   362.60   371.38   377.18   440.41
                              448.74   453.30   494.87   505.31   528.55
                              532.83   534.85   558.89   560.50   561.79
                              573.62   923.98   925.04   927.79   943.61
                             1231.90  1235.28  1241.05  1241.96  1380.19
                             1381.16  1388.98  1417.48  1484.01  1486.12
                             1487.13  1489.74  1534.84  1539.31  1541.29
                             1543.74  1546.59  1548.02  1548.88  1555.88
                             1608.84  1614.82  1615.36  1616.46  1787.96
                             1793.32  1793.74  1794.90  1935.80  1942.46
                             1944.95  1947.53  1955.56  1965.42  1967.25
                             1971.36  1974.78  1979.68  1982.26  1988.03
                             1993.83  1994.24  1996.95  1998.29  1999.05
                             2001.30  2002.56  2002.92  2024.49  2026.98
                             2031.52  2032.87  2038.33  2043.46  2047.44
                             2056.19  2114.95  2117.20  2121.62  2124.01
                             2358.27  2379.12  2390.06  2399.63  4208.60
                             4215.84  4224.62  4263.64  4263.75  4268.65
                             4269.52  4269.97  4273.33  4276.15  4280.77
                             4281.70  4362.86  4370.89  4371.05  4371.53
                             4380.73  4387.90  4388.59  4392.55  4436.73
                             4439.56  4440.44  4441.86  4452.13  4472.45
                             4476.13  4482.52

 Zero-point correction=                           0.402408 (Hartree/Particle)
 Thermal correction to Energy=                    0.439478
 Thermal correction to Enthalpy=                  0.440422
 Thermal correction to Gibbs Free Energy=         0.321952
 Sum of electronic and zero-point Energies=          -1022.572059
 Sum of electronic and thermal Energies=             -1022.534988
 Sum of electronic and thermal Enthalpies=           -1022.534044
 Sum of electronic and thermal Free Energies=        -1022.652515

                     E (Thermal)             CV                S
                      KCal/Mol        Cal/Mol-Kelvin    Cal/Mol-Kelvin
 Total                  275.777            116.437            249.342
 Electronic               0.000              0.000              0.000
 Translational            0.889              2.981             45.334
 Rotational               0.889              2.981             36.580
 Vibrational            273.999            110.475            167.427
 Vibration     1          0.593              1.987              8.475
 Vibration     2          0.593              1.986              7.187
 Vibration     3          0.593              1.986              6.577
 Vibration     4          0.593              1.984              5.938
 Vibration     5          0.594              1.983              5.747
 Vibration     6          0.594              1.982              5.506
 Vibration     7          0.594              1.981              5.276
 Vibration     8          0.594              1.981              5.179
 Vibration     9          0.595              1.980              5.129
 Vibration    10          0.595              1.979              4.954
 Vibration    11          0.595              1.977              4.796
 Vibration    12          0.596              1.975              4.618
 Vibration    13          0.597              1.973              4.439
 Vibration    14          0.597              1.973              4.398
 Vibration    15          0.597              1.971              4.297
 Vibration    16          0.599              1.966              4.056
 Vibration    17          0.600              1.962              3.875
 Vibration    18          0.601              1.959              3.748
 Vibration    19          0.601              1.958              3.708
 Vibration    20          0.603              1.951              3.510
 Vibration    21          0.604              1.949              3.457
 Vibration    22          0.606              1.944              3.325
 Vibration    23          0.606              1.941              3.269
 Vibration    24          0.608              1.937              3.186
 Vibration    25          0.609              1.933              3.100
 Vibration    26          0.610              1.928              3.029
 Vibration    27          0.613              1.919              2.877
 Vibration    28          0.615              1.914              2.813
 Vibration    29          0.622              1.889              2.531
 Vibration    30          0.627              1.874              2.386
 Vibration    31          0.628              1.871              2.363
 Vibration    32          0.629              1.867              2.327
 Vibration    33          0.631              1.863              2.297
 Vibration    34          0.639              1.836              2.110
 Vibration    35          0.641              1.829              2.065
 Vibration    36          0.661              1.768              1.753
 Vibration    37          0.664              1.759              1.716
 Vibration    38          0.667              1.749              1.674
 Vibration    39          0.669              1.742              1.647
 Vibration    40          0.696              1.662              1.383
 Vibration    41          0.700              1.651              1.352
 Vibration    42          0.702              1.645              1.336
 Vibration    43          0.723              1.588              1.194
 Vibration    44          0.728              1.573              1.161
 Vibration    45          0.740              1.539              1.091
 Vibration    46          0.742              1.533              1.078
 Vibration    47          0.743              1.530              1.073
 Vibration    48          0.757              1.495              1.006
 Vibration    49          0.757              1.492              1.002
 Vibration    50          0.758              1.491              0.998
 Vibration    51          0.765              1.473              0.967

 Normal termination of Gaussian 16 at Fri Oct 16 01:01:00 2020.
