 Gaussian 16, Revision C.01,
 Gaussian 16:  ES64L-G16RevC.01  3-Jul-2019

 ----------------------------------------------------------------------
 # pbepbe/Gen pseudo=read Opt=Tight Int=UltraFine Freq EmpiricalDispers
 ion=GD3BJ SCRF=(Solvent=DMSO)
 ----------------------------------------------------------------------

 --------------------------
 01-PbBr2_dmso_22739628.out
 --------------------------
 Symbolic Z-matrix:
 Charge =  0 Multiplicity = 1

 SCF Done:  E(RPBE-PBE) =  -2241.45860918     A.U. after   14 cycles
 SCF Done:  E(RPBE-PBE) =  -2241.45840974     A.U. after   10 cycles
 SCF Done:  E(RPBE-PBE) =  -2241.45842506     A.U. after   10 cycles
 SCF Done:  E(RPBE-PBE) =  -2241.45858233     A.U. after   10 cycles
 SCF Done:  E(RPBE-PBE) =  -2241.45860803     A.U. after    9 cycles
 SCF Done:  E(RPBE-PBE) =  -2241.45856844     A.U. after    9 cycles
 SCF Done:  E(RPBE-PBE) =  -2241.45860466     A.U. after    9 cycles
 SCF Done:  E(RPBE-PBE) =  -2241.45860667     A.U. after    9 cycles
 SCF Done:  E(RPBE-PBE) =  -2241.45860805     A.U. after    7 cycles
 SCF Done:  E(RPBE-PBE) =  -2241.45860941     A.U. after    7 cycles
 SCF Done:  E(RPBE-PBE) =  -2241.45860803     A.U. after    5 cycles
 SCF Done:  E(RPBE-PBE) =  -2241.45860800     A.U. after    5 cycles
 SCF Done:  E(RPBE-PBE) =  -2241.45860795     A.U. after    5 cycles
 SCF Done:  E(RPBE-PBE) =  -2241.45860791     A.U. after    4 cycles
 SCF Done:  E(RPBE-PBE) =  -2241.45860803     A.U. after    8 cycles
 SCF Done:  E(RPBE-PBE) =  -2241.45860790     A.U. after    6 cycles
 SCF Done:  E(RPBE-PBE) =  -2241.45860790     A.U. after    4 cycles
 SCF Done:  E(RPBE-PBE) =  -2241.45860790     A.U. after    4 cycles
 SCF Done:  E(RPBE-PBE) =  -2241.45860791     A.U. after    4 cycles
 Optimization completed.
    -- Stationary point found.
 Normal termination of Gaussian 16 at Fri Nov  6 11:26:35 2020.

 -------------------------------------------------------------------
 #N Geom=AllCheck Guess=TCheck SCRF=Check GenChk RPBEPBE/ChkBas Freq
 -------------------------------------------------------------------

 Structure from the checkpoint file:  "01-PbBr2_dmso.chk"
 --------------------------
 01-PbBr2_dmso_22739628.out
 --------------------------
 Charge =  0 Multiplicity = 1

                         Standard orientation:
 ---------------------------------------------------------------------
 Center     Atomic      Atomic             Coordinates (Angstroms)
 Number     Number       Type             X           Y           Z
 ---------------------------------------------------------------------
      1         82           0       -0.027889   -0.071888   -0.211180
      2         35           0       -2.854661    0.586377   -1.658420
      3         35           0        0.562166   -2.729071   -1.792323
      4          8           0       -0.459391    1.730765    1.360077
      5         16           0       -0.876688    3.243924    1.140796
      6          6           0       -2.700264    3.258089    1.239055
      7          6           0       -0.721841    3.598159   -0.645637
      8          1           0       -2.964584    2.974180    2.273816
      9          1           0        0.310626    3.304552   -0.920918
     10          1           0       -3.044546    4.287878    1.023482
     11          1           0       -0.897268    4.681702   -0.785729
     12          1           0       -3.088605    2.530926    0.498404
     13          1           0       -1.456363    2.978901   -1.199322
     14          8           0        1.828443   -0.296387    1.284021
     15         16           0        2.805162   -1.466889    1.728587
     16          6           0        1.786541   -2.971987    1.863862
     17          6           0        3.750115   -1.916247    0.234406
     18          1           0        0.990777   -2.731702    2.590498
     19          1           0        4.363284   -1.033254   -0.021248
     20          1           0        2.447818   -3.780524    2.230015
     21          1           0        4.396163   -2.777702    0.490895
     22          1           0        1.350143   -3.200000    0.871155
     23          1           0        3.030203   -2.165745   -0.571790
     24          8           0        1.692261    1.614444   -1.101561
     25         16           0        3.116647    1.734018   -0.421532
     26          6           0        2.854145    2.669828    1.124602
     27          6           0        3.934563    3.038362   -1.398557
     28          1           0        2.172280    2.036317    1.719697
     29          1           0        4.077917    2.624562   -2.413086
     30          1           0        3.833548    2.787303    1.626807
     31          1           0        4.913739    3.264825   -0.934830
     32          1           0        2.402700    3.652194    0.890433
     33          1           0        3.283027    3.931792   -1.425646
     34          8           0       -0.875550   -1.350486    1.658247
     35         16           0       -2.321925   -1.912932    1.975465
     36          6           0       -2.935031   -2.662791    0.428309
     37          6           0       -3.416271   -0.453977    2.021291
     38          1           0       -2.223918   -3.470453    0.175886
     39          1           0       -3.031967    0.186225    2.835810
     40          1           0       -3.941909   -3.076140    0.630273
     41          1           0       -4.442214   -0.801164    2.249768
     42          1           0       -2.961073   -1.887668   -0.364873
     43          1           0       -3.364526    0.058891    1.039938
 ---------------------------------------------------------------------

 SCF Done:  E(RPBE-PBE) =  -2241.45860791     A.U. after    1 cycles

 The electronic state is 1-A.
 Alpha  occ. eigenvalues --  -88.18042 -88.17874 -88.17696 -88.17680 -18.76235
 Alpha  occ. eigenvalues --  -18.75830 -18.75510 -18.75151  -9.93142  -9.92796
 Alpha  occ. eigenvalues --   -9.92767  -9.92754  -9.92685  -9.92580  -9.92497
 Alpha  occ. eigenvalues --   -9.92085  -7.78185  -7.78019  -7.77804  -7.77776
 Alpha  occ. eigenvalues --   -5.80510  -5.80328  -5.80206  -5.80112  -5.80061
 Alpha  occ. eigenvalues --   -5.80051  -5.79837  -5.79833  -5.79570  -5.79410
 Alpha  occ. eigenvalues --   -5.79200  -5.79182  -0.92963  -0.92516  -0.92216
 Alpha  occ. eigenvalues --   -0.91943  -0.73534  -0.73301  -0.73016  -0.72939
 Alpha  occ. eigenvalues --   -0.65294  -0.65231  -0.65134  -0.64869  -0.60374
 Alpha  occ. eigenvalues --   -0.60081  -0.56408  -0.55564  -0.55337  -0.55061
 Alpha  occ. eigenvalues --   -0.46455  -0.42650  -0.42250  -0.42111  -0.41952
 Alpha  occ. eigenvalues --   -0.41728  -0.41579  -0.41460  -0.41355  -0.41098
 Alpha  occ. eigenvalues --   -0.40835  -0.40679  -0.39874  -0.37700  -0.37545
 Alpha  occ. eigenvalues --   -0.37495  -0.37436  -0.37181  -0.36853  -0.36362
 Alpha  occ. eigenvalues --   -0.35123  -0.34736  -0.34631  -0.34538  -0.33779
 Alpha  occ. eigenvalues --   -0.32132  -0.31907  -0.31660  -0.31580  -0.25706
 Alpha  occ. eigenvalues --   -0.25014  -0.24860  -0.24416  -0.23293  -0.22697
 Alpha  occ. eigenvalues --   -0.22183  -0.21247  -0.20952  -0.20261  -0.20184
 Alpha  occ. eigenvalues --   -0.20012  -0.19762  -0.18060
 Alpha virt. eigenvalues --   -0.04508  -0.03525  -0.02944  -0.01039  -0.00649
 Alpha virt. eigenvalues --   -0.00072   0.00114   0.00505   0.01445   0.02440
 Alpha virt. eigenvalues --    0.02849   0.03309   0.03407   0.04002   0.04218

 Mulliken charges:
               1
     1  Pb   0.899235
     2  Br  -0.680842
     3  Br  -0.700228
     4  O   -0.561697
     5  S    0.469048
     6  C   -0.165603
     7  C   -0.197200
     8  H    0.094499
     9  H    0.086281
    10  H    0.093131
    11  H    0.092075
    12  H    0.093022
    13  H    0.081506
    14  O   -0.561593
    15  S    0.483796
    16  C   -0.162693
    17  C   -0.170337
    18  H    0.094542
    19  H    0.092561
    20  H    0.093054
    21  H    0.094715
    22  H    0.078908
    23  H    0.084425
    24  O   -0.543600
    25  S    0.457416
    26  C   -0.176947
    27  C   -0.151775
    28  H    0.094114
    29  H    0.095427
    30  H    0.091681
    31  H    0.094132
    32  H    0.088857
    33  H    0.094450
    34  O   -0.554525
    35  S    0.479536
    36  C   -0.168662
    37  C   -0.172154
    38  H    0.090185
    39  H    0.093670
    40  H    0.094506
    41  H    0.093696
    42  H    0.082371
    43  H    0.087019
 Sum of Mulliken charges =  -0.00000

 Dipole moment (field-independent basis, Debye):
    X=              8.4603    Y=              9.1974    Z=             13.9067  Tot=             18.6967
 Quadrupole moment (field-independent basis, Debye-Ang):
   XX=           -127.0211   YY=           -140.8956   ZZ=           -189.3019
   XY=             13.5902   XZ=            -21.8503   YZ=            -20.7836

  Exact polarizability:     400.871      -8.100     398.449      -7.976      -0.524     315.141
 Approx polarizability:     507.930     -15.450     503.849       8.911       6.540     440.130

                      1                      2                      3
                      A                      A                      A
 Frequencies --     16.7394                20.7843                30.6252
 Red. masses --      7.1578                13.3316                12.9884
 Frc consts  --      0.0012                 0.0034                 0.0072
 IR Inten    --      2.8404                 0.5256                 0.7074

                      4                      5                      6
                      A                      A                      A
 Frequencies --     38.8681                44.5009                51.7650
 Red. masses --      6.2272                 6.4484                 4.8663
 Frc consts  --      0.0055                 0.0075                 0.0077
 IR Inten    --      4.1320                 1.6250                 1.8554

                      7                      8                      9
                      A                      A                      A
 Frequencies --     56.1231                58.6101                63.8585
 Red. masses --      9.9511                 8.8885                 4.7509
 Frc consts  --      0.0185                 0.0180                 0.0114
 IR Inten    --      5.3220                 1.1464                 2.6329

                     10                     11                     12
                      A                      A                      A
 Frequencies --     68.4260                69.6165                76.4845
 Red. masses --      7.3670                 6.8953                 7.6818
 Frc consts  --      0.0203                 0.0197                 0.0265
 IR Inten    --     10.2985                 8.5760                25.9142

                     13                     14                     15
                      A                      A                      A
 Frequencies --     78.6854                80.3178                82.2317
 Red. masses --      3.4228                 5.6575                 4.6421
 Frc consts  --      0.0125                 0.0215                 0.0185
 IR Inten    --      5.1444                16.9832                14.3730

                     16                     17                     18
                      A                      A                      A
 Frequencies --     88.3191                97.7726               100.4713
 Red. masses --      5.4690                 4.3766                 4.3534
 Frc consts  --      0.0251                 0.0247                 0.0259
 IR Inten    --     13.0147                12.1835                 9.4262

                     19                     20                     21
                      A                      A                      A
 Frequencies --    103.5254               105.4918               108.8131
 Red. masses --      5.0936                 6.0756                 5.9504
 Frc consts  --      0.0322                 0.0398                 0.0415
 IR Inten    --      7.1470                31.4934                43.4100

                     22                     23                     24
                      A                      A                      A
 Frequencies --    114.6935               129.8919               134.2408
 Red. masses --      5.5360                 6.2795                 4.7027
 Frc consts  --      0.0429                 0.0624                 0.0499
 IR Inten    --     38.0156                 9.9329                 6.2798

                     25                     26                     27
                      A                      A                      A
 Frequencies --    166.5891               176.4073               186.4711
 Red. masses --      2.7523                 2.1695                 1.1202
 Frc consts  --      0.0450                 0.0398                 0.0229
 IR Inten    --     49.7018                38.4262                 7.7104

                     28                     29                     30
                      A                      A                      A
 Frequencies --    192.0040               198.2377               200.1655
 Red. masses --      1.1736                 1.3337                 1.4864
 Frc consts  --      0.0255                 0.0309                 0.0351
 IR Inten    --     10.6596                32.0404                21.5153

                     31                     32                     33
                      A                      A                      A
 Frequencies --    211.7141               226.2086               238.7800
 Red. masses --      2.5149                 1.0522                 1.2324
 Frc consts  --      0.0664                 0.0317                 0.0414
 IR Inten    --     46.9260                 4.8072                17.7661

                     34                     35                     36
                      A                      A                      A
 Frequencies --    246.6926               249.9227               275.2717
 Red. masses --      1.2380                 1.1956                 2.3992
 Frc consts  --      0.0444                 0.0440                 0.1071
 IR Inten    --     10.4659                11.9168                 5.3300

                     37                     38                     39
                      A                      A                      A
 Frequencies --    280.9110               283.6987               291.4282
 Red. masses --      2.4822                 2.3725                 2.4526
 Frc consts  --      0.1154                 0.1125                 0.1227
 IR Inten    --      8.3059                 8.1957                 5.6176

                     40                     41                     42
                      A                      A                      A
 Frequencies --    300.7994               305.2305               309.1016
 Red. masses --      3.9553                 3.8881                 3.9556
 Frc consts  --      0.2109                 0.2134                 0.2227
 IR Inten    --      8.2344                29.4011                65.2727

                     43                     44                     45
                      A                      A                      A
 Frequencies --    321.1566               353.2722               356.2593
 Red. masses --      4.2840                 3.3238                 3.6396
 Frc consts  --      0.2603                 0.2444                 0.2722
 IR Inten    --      9.8948                 5.3002                39.1551

                     46                     47                     48
                      A                      A                      A
 Frequencies --    357.1988               363.5360               633.7666
 Red. masses --      3.8350                 3.8611                 4.9179
 Frc consts  --      0.2883                 0.3006                 1.1638
 IR Inten    --     17.2326                 2.9537                 8.0522

                     49                     50                     51
                      A                      A                      A
 Frequencies --    634.4989               637.7170               638.1148
 Red. masses --      4.7050                 4.8059                 4.8404
 Frc consts  --      1.1160                 1.1515                 1.1613
 IR Inten    --      8.2599                 8.9324                 7.6493

                     52                     53                     54
                      A                      A                      A
 Frequencies --    662.9031               667.2881               668.4559
 Red. masses --      4.5188                 4.4836                 4.4217
 Frc consts  --      1.1700                 1.1763                 1.1641
 IR Inten    --     19.3047                20.4402                40.8630

                     55                     56                     57
                      A                      A                      A
 Frequencies --    668.9308               865.8869               877.8033
 Red. masses --      4.4118                 1.2067                 1.2163
 Frc consts  --      1.1631                 0.5331                 0.5522
 IR Inten    --      2.7425                24.4619                12.3525

                     58                     59                     60
                      A                      A                      A
 Frequencies --    879.2444               882.6106               884.5199
 Red. masses --      1.2368                 1.2567                 4.0795
 Frc consts  --      0.5634                 0.5768                 1.8805
 IR Inten    --     27.1813                40.2975               439.2861

                     61                     62                     63
                      A                      A                      A
 Frequencies --    886.5061               889.9283               896.6712
 Red. masses --      4.5443                 4.4719                 3.4757
 Frc consts  --      2.1042                 2.0866                 1.6465
 IR Inten    --    356.9344               245.1344                42.7931

                     64                     65                     66
                      A                      A                      A
 Frequencies --    898.1265               903.6121               908.9758
 Red. masses --      1.4462                 1.3499                 1.3108
 Frc consts  --      0.6873                 0.6494                 0.6381
 IR Inten    --      9.4181                 6.0133                 2.5982

                     67                     68                     69
                      A                      A                      A
 Frequencies --    909.1518               948.9484               960.8637
 Red. masses --      1.3067                 1.7981                 1.6455
 Frc consts  --      0.6363                 0.9540                 0.8951
 IR Inten    --      3.5615               237.0425               187.1324

                     70                     71                     72
                      A                      A                      A
 Frequencies --    965.8174               973.1672               989.6553
 Red. masses --      1.6750                 1.8480                 1.3769
 Frc consts  --      0.9206                 1.0312                 0.7945
 IR Inten    --    210.3428                61.8224                31.6876

                     73                     74                     75
                      A                      A                      A
 Frequencies --    999.3626              1001.0789              1001.7820
 Red. masses --      1.3377                 1.3286                 1.3441
 Frc consts  --      0.7871                 0.7845                 0.7947
 IR Inten    --      2.7109                52.2361                22.9188

                     76                     77                     78
                      A                      A                      A
 Frequencies --   1236.5766              1237.9014              1241.3021
 Red. masses --      1.1817                 1.1795                 1.1749
 Frc consts  --      1.0646                 1.0649                 1.0666
 IR Inten    --      3.9355                 2.6372                 1.0530

                     79                     80                     81
                      A                      A                      A
 Frequencies --   1244.9899              1258.6542              1266.3097
 Red. masses --      1.1740                 1.1806                 1.1698
 Frc consts  --      1.0721                 1.1020                 1.1052
 IR Inten    --      1.4630                 8.7126                13.8784

                     82                     83                     84
                      A                      A                      A
 Frequencies --   1267.3838              1270.1574              1344.1459
 Red. masses --      1.1676                 1.1695                 1.0455
 Frc consts  --      1.1050                 1.1116                 1.1129
 IR Inten    --     14.4113                 5.3126                10.6823

                     85                     86                     87
                      A                      A                      A
 Frequencies --   1349.5395              1352.2735              1356.0087
 Red. masses --      1.0440                 1.0461                 1.0499
 Frc consts  --      1.1203                 1.1271                 1.1375
 IR Inten    --      3.1561                 6.7902                19.3222

                     88                     89                     90
                      A                      A                      A
 Frequencies --   1363.0376              1363.3101              1365.3406
 Red. masses --      1.0431                 1.0451                 1.0420
 Frc consts  --      1.1418                 1.1444                 1.1445
 IR Inten    --     11.8979                 4.4664                 3.3407

                     91                     92                     93
                      A                      A                      A
 Frequencies --   1366.5013              1368.0173              1370.0760
 Red. masses --      1.0460                 1.0444                 1.0477
 Frc consts  --      1.1508                 1.1516                 1.1587
 IR Inten    --      6.0012                14.3007                 6.0577

                     94                     95                     96
                      A                      A                      A
 Frequencies --   1371.4738              1378.2931              1381.8275
 Red. masses --      1.0440                 1.0491                 1.0487
 Frc consts  --      1.1570                 1.1743                 1.1798
 IR Inten    --     20.7329                 7.2468                 7.1523

                     97                     98                     99
                      A                      A                      A
 Frequencies --   1382.9004              1385.8603              1404.0905
 Red. masses --      1.0490                 1.0478                 1.0509
 Frc consts  --      1.1820                 1.1857                 1.2207
 IR Inten    --     69.6601                21.4785                34.6468

                    100                    101                    102
                      A                      A                      A
 Frequencies --   2949.1975              2956.7259              2956.9217
 Red. masses --      1.0287                 1.0321                 1.0326
 Frc consts  --      5.2717                 5.3162                 5.3196
 IR Inten    --     59.1263                41.1205                36.0383

                    103                    104                    105
                      A                      A                      A
 Frequencies --   2962.0197              2966.1048              2966.9137
 Red. masses --      1.0313                 1.0308                 1.0300
 Frc consts  --      5.3311                 5.3434                 5.3417
 IR Inten    --     39.1191                48.7997                48.1870

                    106                    107                    108
                      A                      A                      A
 Frequencies --   2980.5627              2988.0385              3068.2373
 Red. masses --      1.0276                 1.0284                 1.1093
 Frc consts  --      5.3789                 5.4097                 6.1528
 IR Inten    --     13.6081                 7.0777                56.7193

                    109                    110                    111
                      A                      A                      A
 Frequencies --   3083.2899              3084.3853              3089.1367
 Red. masses --      1.1054                 1.1065                 1.1066
 Frc consts  --      6.1913                 6.2022                 6.2221
 IR Inten    --     14.4103                15.1559                23.9181

                    112                    113                    114
                      A                      A                      A
 Frequencies --   3091.0467              3092.6846              3101.0668
 Red. masses --      1.1073                 1.1078                 1.1073
 Frc consts  --      6.2332                 6.2431                 6.2742
 IR Inten    --     25.1375                17.3405                 8.5734

                    115                    116                    117
                      A                      A                      A
 Frequencies --   3103.0383              3109.3511              3113.0428
 Red. masses --      1.1082                 1.1076                 1.1067
 Frc consts  --      6.2871                 6.3094                 6.3188
 IR Inten    --      3.9900                 1.9785                 2.7186

                    118                    119                    120
                      A                      A                      A
 Frequencies --   3113.6638              3113.7794              3114.9197
 Red. masses --      1.1066                 1.1065                 1.1066
 Frc consts  --      6.3210                 6.3206                 6.3258
 IR Inten    --      0.6722                 1.1228                 1.6887

                    121                    122                    123
                      A                      A                      A
 Frequencies --   3117.9423              3121.3809              3125.3012
 Red. masses --      1.1077                 1.1084                 1.1062
 Frc consts  --      6.3448                 6.3629                 6.3659
 IR Inten    --      0.5328                11.6665                 2.8133

 - Thermochemistry -
 -------------------
 Temperature   298.150 Kelvin.  Pressure   1.00000 Atm.
 Atom     1 has atomic number 82 and mass 207.97660

 Molecular mass:   677.86902 amu.
 Principal axes and moments of inertia in atomic units:
                           1         2         3
     Eigenvalues --  ******************************
           X            0.99129   0.12497  -0.04145
           Y           -0.12689   0.99078  -0.04754
           Z            0.03513   0.05238   0.99801
 This molecule is an asymmetric top.
 Rotational symmetry number  1.
 Warning -- assumption of classical behavior for rotation
           may cause significant error
 Rotational temperatures (Kelvin)      0.00726     0.00660     0.00497
 Rotational constants (GHZ):           0.15137     0.13742     0.10346
 Zero-point vibrational energy     819095.2 (Joules/Mol)
                                  195.76845 (Kcal/Mol)
 Warning -- explicit consideration of  47 degrees of freedom as
           vibrations may cause significant error
 Vibrational temperatures:     24.08    29.90    44.06    55.92    64.03
          (Kelvin)             74.48    80.75    84.33    91.88    98.45
                              100.16   110.04   113.21   115.56   118.31
                              127.07   140.67   144.56   148.95   151.78
                              156.56   165.02   186.89   193.14   239.68
                              253.81   268.29   276.25   285.22   287.99
                              304.61   325.46   343.55   354.94   359.58
                              396.05   404.17   408.18   419.30   432.78
                              439.16   444.73   462.07   508.28   512.58
                              513.93   523.05   911.85   912.90   917.53
                              918.10   953.77   960.08   961.76   962.44
                             1245.82  1262.96  1265.04  1269.88  1272.63
                             1275.48  1280.41  1290.11  1292.20  1300.10
                             1307.81  1308.07  1365.33  1382.47  1389.60
                             1400.17  1423.89  1437.86  1440.33  1441.34
                             1779.16  1781.06  1785.96  1791.26  1810.92
                             1821.94  1823.48  1827.47  1933.93  1941.69
                             1945.62  1950.99  1961.11  1961.50  1964.42
                             1966.09  1968.27  1971.23  1973.24  1983.06
                             1988.14  1989.69  1993.94  2020.17  4243.24
                             4254.07  4254.35  4261.69  4267.56  4268.73
                             4288.36  4299.12  4414.51  4436.17  4437.74
                             4444.58  4447.33  4449.68  4461.74  4464.58
                             4473.66  4478.97  4479.87  4480.03  4481.67
                             4486.02  4490.97  4496.61

 Zero-point correction=                           0.311977 (Hartree/Particle)
 Thermal correction to Energy=                    0.346779
 Thermal correction to Enthalpy=                  0.347723
 Thermal correction to Gibbs Free Energy=         0.239283
 Sum of electronic and zero-point Energies=          -2241.146631
 Sum of electronic and thermal Energies=             -2241.111829
 Sum of electronic and thermal Enthalpies=           -2241.110885
 Sum of electronic and thermal Free Energies=        -2241.219325

                     E (Thermal)             CV                S
                      KCal/Mol        Cal/Mol-Kelvin    Cal/Mol-Kelvin
 Total                  217.607            112.841            228.231
 Electronic               0.000              0.000              0.000
 Translational            0.889              2.981             45.423
 Rotational               0.889              2.981             36.256
 Vibrational            215.830            106.880            146.553
 Vibration     1          0.593              1.986              6.988
 Vibration     2          0.593              1.986              6.558
 Vibration     3          0.594              1.984              5.789
 Vibration     4          0.594              1.981              5.316
 Vibration     5          0.595              1.980              5.048
 Vibration     6          0.596              1.977              4.749
 Vibration     7          0.596              1.975              4.589
 Vibration     8          0.596              1.974              4.503
 Vibration     9          0.597              1.972              4.334
 Vibration    10          0.598              1.969              4.198
 Vibration    11          0.598              1.969              4.164
 Vibration    12          0.599              1.965              3.979
 Vibration    13          0.600              1.963              3.923
 Vibration    14          0.600              1.963              3.883
 Vibration    15          0.600              1.961              3.837
 Vibration    16          0.601              1.957              3.697
 Vibration    17          0.603              1.951              3.498
 Vibration    18          0.604              1.949              3.445
 Vibration    19          0.605              1.946              3.387
 Vibration    20          0.605              1.945              3.350
 Vibration    21          0.606              1.942              3.290
 Vibration    22          0.608              1.937              3.188
 Vibration    23          0.612              1.923              2.948
 Vibration    24          0.613              1.919              2.884
 Vibration    25          0.624              1.884              2.474
 Vibration    26          0.628              1.871              2.366
 Vibration    27          0.632              1.858              2.263
 Vibration    28          0.634              1.851              2.208
 Vibration    29          0.637              1.842              2.149
 Vibration    30          0.638              1.840              2.132
 Vibration    31          0.643              1.823              2.029
 Vibration    32          0.650              1.801              1.909
 Vibration    33          0.657              1.781              1.812
 Vibration    34          0.661              1.768              1.754
 Vibration    35          0.663              1.763              1.731
 Vibration    36          0.677              1.719              1.563
 Vibration    37          0.681              1.709              1.528
 Vibration    38          0.682              1.704              1.511
 Vibration    39          0.687              1.690              1.466
 Vibration    40          0.693              1.672              1.412
 Vibration    41          0.696              1.664              1.388
 Vibration    42          0.698              1.656              1.367
 Vibration    43          0.707              1.633              1.304
 Vibration    44          0.729              1.569              1.152
 Vibration    45          0.732              1.562              1.138
 Vibration    46          0.732              1.560              1.134
 Vibration    47          0.737              1.547              1.107

                           ! Non-Optimized Parameters !
 Normal termination of Gaussian 16 at Fri Nov  6 11:49:00 2020.
