 Gaussian 16, Revision C.01,
 Gaussian 16:  ES64L-G16RevC.01  3-Jul-2019

 ----------------------------------------------------------------------
 # cam-b3lyp/gen pseudo=read TD=NStates=10 Geom=Check Guess=Read empiri
 caldispersion=gd3bj SCRF=(Solvent=CH3CN)
 ----------------------------------------------------------------------

 ---------
 PbBr2_acn
 ---------
 Structure from the checkpoint file:  "02-PbBr2_acn.chk"
 Charge =  0 Multiplicity = 1

                         Standard orientation:
 ---------------------------------------------------------------------
 Center     Atomic      Atomic             Coordinates (Angstroms)
 Number     Number       Type             X           Y           Z
 ---------------------------------------------------------------------
      1         82           0       -0.154219   -0.187434   -0.638251
      2         35           0        0.385375   -2.310000    1.196964
      3         35           0       -1.729489    1.360270    1.211549
      4          6           0        0.324012    4.284910   -0.338041
      5          1           0        1.357588    4.534055   -0.029165
      6          1           0       -0.155162    5.185118   -0.768367
      7          1           0       -0.255276    3.945665    0.545537
      8          6           0        0.338494    3.206479   -1.309286
      9          7           0        0.339302    2.307575   -2.067796
     10          6           0        3.955980   -1.971513   -0.337392
     11          1           0        4.677368   -1.186748   -0.038150
     12          1           0        4.508373   -2.833184   -0.758629
     13          1           0        3.377952   -2.302592    0.550157
     14          6           0        3.019556   -1.444115   -1.312544
     15          7           0        2.231356   -1.012549   -2.071488
     16          6           0       -4.669544   -0.946651    0.112996
     17          1           0       -5.491082   -0.620548   -0.553180
     18          1           0       -4.997899   -1.827718    0.696907
     19          1           0       -4.404367   -0.121345    0.805888
     20          6           0       -3.489832   -1.271517   -0.665139
     21          7           0       -2.516657   -1.513318   -1.279066
     22          6           0        3.792207    2.049897    1.892218
     23          1           0        4.726112    1.488068    1.697201
     24          1           0        3.922304    3.099114    1.563834
     25          1           0        3.576247    2.031609    2.977784
     26          6           0        2.695571    1.441816    1.164459
     27          7           0        1.810168    0.950121    0.576235
 ---------------------------------------------------------------------

 SCF Done:  E(RCAM-B3LYP) =  -560.894758719     A.U. after   11 cycles

 Excitation energies and oscillator strengths:

 Excited State   1:      Singlet-A      5.6732 eV  218.54 nm  f=0.0387  <S**2>=0.000
      52 -> 54         0.44744
      52 -> 55        -0.19279
      52 -> 56        -0.16398
      53 -> 54        -0.19866
      53 -> 55        -0.40702
 This state for optimization and/or second-order correction.
 Total Energy, E(TD-HF/TD-DFT) =  -560.686271823
 Copying the excited state density for this state as the 1-particle RhoCI density.

 Excited State   2:      Singlet-A      5.7306 eV  216.35 nm  f=0.1182  <S**2>=0.000
      49 -> 54        -0.13679
      51 -> 55        -0.10140
      52 -> 55        -0.25657
      53 -> 54         0.55591
      53 -> 55        -0.20974
      53 -> 56        -0.10864

 Excited State   3:      Singlet-A      5.8178 eV  213.11 nm  f=0.0142  <S**2>=0.000
      49 -> 54         0.12941
      50 -> 55        -0.12808
      51 -> 54         0.11719
      51 -> 55        -0.22903
      52 -> 54         0.22429
      52 -> 55         0.50284
      53 -> 54         0.22901

 Excited State   4:      Singlet-A      5.8354 eV  212.47 nm  f=0.0194  <S**2>=0.000
      50 -> 55        -0.27446
      51 -> 54         0.37791
      51 -> 55        -0.37756
      51 -> 56        -0.13118
      52 -> 54        -0.13993
      52 -> 55        -0.19884
      53 -> 54        -0.16342

 Excited State   5:      Singlet-A      5.8678 eV  211.30 nm  f=0.0118  <S**2>=0.000
      50 -> 54         0.37130
      50 -> 56        -0.10843
      51 -> 54        -0.29471
      51 -> 55        -0.20262
      51 -> 56         0.11529
      52 -> 55        -0.12297
      53 -> 56         0.39914

 Excited State   6:      Singlet-A      5.9191 eV  209.47 nm  f=0.1687  <S**2>=0.000
      50 -> 54        -0.27689
      50 -> 56         0.10540
      51 -> 54         0.18079
      51 -> 55         0.22900
      52 -> 54         0.10288
      53 -> 54         0.19139
      53 -> 55         0.14152
      53 -> 56         0.47807

 Excited State   7:      Singlet-A      6.0392 eV  205.30 nm  f=0.3065  <S**2>=0.000
      48 -> 54        -0.12924
      49 -> 55         0.14225
      50 -> 54         0.11967
      51 -> 54         0.14620
      51 -> 56         0.15331
      52 -> 54         0.32796
      52 -> 55        -0.13861
      53 -> 55         0.43102
      53 -> 56        -0.24224

 Excited State   8:      Singlet-A      6.1430 eV  201.83 nm  f=0.0162  <S**2>=0.000
      50 -> 54         0.43994
      50 -> 55         0.12880
      50 -> 56        -0.11828
      51 -> 54         0.35865
      51 -> 55         0.31080
      51 -> 56        -0.13442

 Excited State   9:      Singlet-A      6.1915 eV  200.25 nm  f=0.0093  <S**2>=0.000
      52 -> 54         0.20713
      52 -> 56         0.64407

 Excited State  10:      Singlet-A      6.2173 eV  199.42 nm  f=0.0018  <S**2>=0.000
      50 -> 55         0.60535
      51 -> 54         0.13738
      51 -> 55        -0.29053

 The electronic state is 1-A.
 Alpha  occ. eigenvalues --  -14.42887 -14.41522 -14.41158 -14.41096 -10.34036
 Alpha  occ. eigenvalues --  -10.32805 -10.32297 -10.32218 -10.30238 -10.29446
 Alpha  occ. eigenvalues --  -10.29361 -10.29336  -1.02246  -1.00963  -1.00536
 Alpha  occ. eigenvalues --   -1.00463  -0.86591  -0.85760  -0.85577  -0.85537
 Alpha  occ. eigenvalues --   -0.77858  -0.76940  -0.61037  -0.58982  -0.58642
 Alpha  occ. eigenvalues --   -0.58515  -0.57507  -0.53943  -0.53708  -0.53152
 Alpha  occ. eigenvalues --   -0.52895  -0.52848  -0.52739  -0.52552  -0.52533
 Alpha  occ. eigenvalues --   -0.49865  -0.47479  -0.46581  -0.45180  -0.43106
 Alpha  occ. eigenvalues --   -0.43032  -0.41716  -0.41584  -0.41347  -0.40825
 Alpha  occ. eigenvalues --   -0.40706  -0.40171  -0.34096  -0.32608  -0.31724
 Alpha  occ. eigenvalues --   -0.31313  -0.30741  -0.30038
 Alpha virt. eigenvalues --    0.00657   0.00912   0.01726   0.04531   0.04810
 Alpha virt. eigenvalues --    0.05486   0.05817   0.05883   0.06423   0.07062
 Alpha virt. eigenvalues --    0.07552   0.07889   0.08651   0.09377   0.10207

 Mulliken charges:
               1
     1  Pb   1.087357
     2  Br  -0.625630
     3  Br  -0.618035
     4  C   -0.231094
     5  H    0.146849
     6  H    0.151998
     7  H    0.117541
     8  C   -0.002647
     9  N   -0.165776
    10  C   -0.231397
    11  H    0.147228
    12  H    0.153041
    13  H    0.117357
    14  C   -0.000188
    15  N   -0.167698
    16  C   -0.223388
    17  H    0.146500
    18  H    0.146895
    19  H    0.118978
    20  C    0.018233
    21  N   -0.186063
    22  C   -0.231649
    23  H    0.148846
    24  H    0.148801
    25  H    0.150381
    26  C    0.060581
    27  N   -0.177023
 Sum of Mulliken charges =  -0.00000

 Dipole moment (field-independent basis, Debye):
    X=              7.8546    Y=              7.9445    Z=              0.8096  Tot=             11.2012
 Quadrupole moment (field-independent basis, Debye-Ang):
   XX=            -47.7098   YY=           -102.0572   ZZ=           -135.8780
   XY=             17.7176   XZ=             18.5997   YZ=              9.8965

 Normal termination of Gaussian 16 at Wed Nov 11 18:33:07 2020.
