 Gaussian 16, Revision C.01,
 Gaussian 16:  ES64L-G16RevC.01  3-Jul-2019

 ----------------------------------------------------------------------
 # cam-b3lyp/gen pseudo=read TD=NStates=10 Geom=Check Guess=Read empiri
 caldispersion=gd3bj SCRF=(Solvent=n,n-DiMethylFormamide)
 ----------------------------------------------------------------------

 ---------
 PbBr2_DMF
 ---------
 Structure from the checkpoint file:  "02-PbBr2_DMF.chk"
 Charge =  0 Multiplicity = 1

                         Standard orientation:
 ---------------------------------------------------------------------
 Center     Atomic      Atomic             Coordinates (Angstroms)
 Number     Number       Type             X           Y           Z
 ---------------------------------------------------------------------
      1         82           0        0.174496   -0.655573   -0.256278
      2         35           0        1.610721   -2.298675   -2.165388
      3         35           0        1.484622   -1.744852    2.190798
      4          8           0       -0.718890    0.846390   -2.217591
      5          6           0       -1.431034    1.873814   -2.168914
      6          1           0       -1.039182    2.875530   -2.472586
      7          7           0       -2.722789    1.918621   -1.775640
      8          6           0       -3.424524    0.710690   -1.367316
      9          6           0       -3.452999    3.175345   -1.724335
     10          1           0       -2.786332    4.003752   -2.027691
     11          1           0       -3.817680    3.367832   -0.694252
     12          1           0       -4.328868    3.146200   -2.404282
     13          1           0       -3.630172    0.727988   -0.277250
     14          1           0       -4.385702    0.631708   -1.913155
     15          1           0       -2.787911   -0.159428   -1.603489
     16          8           0       -1.187287    1.312781    1.159463
     17          6           0       -1.660051    2.450037    1.366363
     18          1           0       -2.643760    2.590733    1.879490
     19          7           0       -1.087156    3.624666    1.017675
     20          6           0        0.209779    3.667436    0.358225
     21          6           0       -1.720626    4.895225    1.336743
     22          1           0       -2.683461    4.712107    1.848635
     23          1           0       -1.909999    5.476213    0.410492
     24          1           0       -1.068147    5.498283    2.001373
     25          1           0        0.146975    4.288775   -0.558030
     26          1           0        0.970958    4.116648    1.030696
     27          1           0        0.518342    2.641907    0.093848
     28          8           0        2.010430    0.993120   -0.407332
     29          6           0        2.970610    1.064450    0.409856
     30          1           0        3.099825    0.315667    1.224993
     31          7           0        3.899740    2.031206    0.376595
     32          6           0        3.853525    3.086599   -0.627536
     33          6           0        4.979157    2.071672    1.353324
     34          1           0        4.883002    1.217138    2.047327
     35          1           0        4.936623    3.016422    1.932629
     36          1           0        5.961292    2.015678    0.841757
     37          1           0        3.683612    4.069397   -0.141476
     38          1           0        4.815184    3.124938   -1.177170
     39          1           0        3.028342    2.868122   -1.327081
     40          8           0       -1.844307   -2.387006   -0.350378
     41          6           0       -3.027811   -2.391051    0.058965
     42          1           0       -3.870643   -2.730595   -0.592872
     43          7           0       -3.434463   -2.010308    1.286602
     44          6           0       -2.466162   -1.559475    2.282044
     45          6           0       -4.848044   -1.953033    1.628386
     46          1           0       -5.449121   -2.317602    0.774978
     47          1           0       -5.149487   -0.909728    1.857282
     48          1           0       -5.058873   -2.582834    2.516367
     49          1           0       -2.294319   -0.464868    2.205455
     50          1           0       -2.844119   -1.810074    3.290811
     51          1           0       -1.499880   -2.071267    2.113867
 ---------------------------------------------------------------------

 SCF Done:  E(RCAM-B3LYP) =  -1023.95831844     A.U. after   11 cycles

 Excitation energies and oscillator strengths:

 Excited State   1:      Singlet-A      5.5958 eV  221.57 nm  f=0.3447  <S**2>=0.000
      77 ->  90        0.12979
      77 ->  91       -0.12146
      77 ->  92       -0.10703
      79 ->  93       -0.11927
      89 ->  90        0.57366
      89 ->  91        0.12177
 This state for optimization and/or second-order correction.
 Total Energy, E(TD-HF/TD-DFT) =  -1023.75267524
 Copying the excited state density for this state as the 1-particle RhoCI density.

 Excited State   2:      Singlet-A      5.6981 eV  217.59 nm  f=0.0823  <S**2>=0.000
      77 ->  90       -0.22417
      77 ->  92        0.11590
      77 ->  97       -0.11691
      79 ->  91       -0.19690
      79 ->  93       -0.11836
      79 ->  96       -0.10295
      89 ->  90       -0.11994
      89 ->  91        0.44280
      89 ->  92        0.17597
      89 ->  93        0.13790

 Excited State   3:      Singlet-A      5.8232 eV  212.91 nm  f=0.0259  <S**2>=0.000
      78 ->  90        0.17096
      78 ->  92        0.15708
      78 ->  93       -0.36319
      78 ->  94        0.13230
      79 ->  90       -0.14086
      79 ->  91       -0.10579
      79 ->  93        0.11492
      89 ->  92       -0.28139
      89 ->  93        0.17254

 Excited State   4:      Singlet-A      5.8720 eV  211.15 nm  f=0.0722  <S**2>=0.000
      76 ->  91       -0.18575
      76 ->  92        0.17032
      76 ->  93        0.11143
      78 ->  93       -0.19075
      79 ->  92       -0.15286
      89 ->  91       -0.26235
      89 ->  92        0.39150
      89 ->  93        0.14483
      89 ->  94       -0.10063

 Excited State   5:      Singlet-A      5.9804 eV  207.32 nm  f=0.1340  <S**2>=0.000
      77 ->  90       -0.26079
      77 ->  91        0.21273
      77 ->  92        0.20369
      77 ->  97       -0.15812
      78 ->  90        0.10227
      79 ->  90        0.11607
      79 ->  93        0.15486
      81 ->  90        0.12268
      88 ->  90       -0.13987
      89 ->  90        0.26324
      89 ->  95        0.13892
      89 ->  97       -0.15790

 Excited State   6:      Singlet-A      6.0584 eV  204.65 nm  f=0.1074  <S**2>=0.000
      76 ->  91       -0.14709
      77 ->  90       -0.10750
      79 ->  91       -0.10104
      79 ->  93       -0.18004
      79 ->  96       -0.11258
      88 ->  90       -0.20769
      89 ->  91       -0.21045
      89 ->  92       -0.19692
      89 ->  94        0.29468
      89 ->  96        0.20534

 Excited State   7:      Singlet-A      6.0792 eV  203.95 nm  f=0.0982  <S**2>=0.000
      76 ->  92        0.18079
      76 ->  93        0.13304
      77 ->  90        0.11389
      79 ->  91        0.20223
      88 ->  90       -0.21503
      89 ->  91        0.16971
      89 ->  93        0.20839
      89 ->  94        0.27201
      89 ->  96       -0.19362
      89 ->  97        0.12226

 Excited State   8:      Singlet-A      6.2171 eV  199.42 nm  f=0.0437  <S**2>=0.000
      85 ->  90        0.20551
      86 ->  90       -0.13937
      87 ->  90        0.35028
      88 ->  90       -0.34035
      88 ->  94       -0.10850
      88 ->  95       -0.13207
      89 ->  93       -0.10515
      89 ->  94       -0.14062

 Excited State   9:      Singlet-A      6.2264 eV  199.13 nm  f=0.0288  <S**2>=0.000
      85 ->  90       -0.18617
      86 ->  90       -0.11835
      86 ->  94       -0.10927
      87 ->  90        0.41529
      87 ->  92        0.11973
      87 ->  94       -0.12551
      87 ->  97       -0.13341
      88 ->  90        0.26845
      88 ->  92       -0.11935
      88 ->  94        0.13614
      88 ->  95        0.12012

 Excited State  10:      Singlet-A      6.2799 eV  197.43 nm  f=0.0825  <S**2>=0.000
      86 ->  90        0.34081
      86 ->  92        0.20052
      86 ->  94       -0.21932
      86 ->  97       -0.10068
      87 ->  91       -0.17053
      87 ->  92        0.26972
      87 ->  94       -0.28367
      87 ->  95       -0.11601
      88 ->  92        0.12963
      88 ->  94       -0.12196

 The electronic state is 1-A.
 Alpha  occ. eigenvalues --  -19.20447 -19.19503 -19.19218 -19.19198 -14.45346
 Alpha  occ. eigenvalues --  -14.45001 -14.44727 -14.44609 -10.37130 -10.37077
 Alpha  occ. eigenvalues --  -10.36882 -10.36658 -10.29417 -10.29289 -10.29227
 Alpha  occ. eigenvalues --  -10.29144 -10.28773 -10.28732 -10.28360 -10.27871
 Alpha  occ. eigenvalues --   -1.13888  -1.13355  -1.12955  -1.12924  -1.04226
 Alpha  occ. eigenvalues --   -1.03984  -1.03723  -1.03517  -0.81887  -0.81868
 Alpha  occ. eigenvalues --   -0.81558  -0.81303  -0.79682  -0.79411  -0.79208
 Alpha  occ. eigenvalues --   -0.79042  -0.76212  -0.75566  -0.65860  -0.65575
 Alpha  occ. eigenvalues --   -0.65306  -0.65038  -0.61044  -0.60004  -0.59854
 Alpha  occ. eigenvalues --   -0.59648  -0.59137  -0.56876  -0.56716  -0.56419
 Alpha  occ. eigenvalues --   -0.56123  -0.55799  -0.55332  -0.54953  -0.52419
 Alpha  occ. eigenvalues --   -0.49921  -0.49899  -0.49618  -0.48334  -0.48310
 Alpha  occ. eigenvalues --   -0.48065  -0.47980  -0.47856  -0.47721  -0.47446
 Alpha  occ. eigenvalues --   -0.47362  -0.47180  -0.47032  -0.46682  -0.46102
 Alpha  occ. eigenvalues --   -0.46019  -0.45757  -0.45527  -0.44842  -0.44464
 Alpha  occ. eigenvalues --   -0.37118  -0.35994  -0.35653  -0.35334  -0.33453
 Alpha  occ. eigenvalues --   -0.33332  -0.32593  -0.32496  -0.32453  -0.31147
 Alpha  occ. eigenvalues --   -0.30703  -0.30207  -0.29777  -0.27781
 Alpha virt. eigenvalues --    0.02241   0.03190   0.03320   0.03936   0.04890
 Alpha virt. eigenvalues --    0.05409   0.05977   0.06862   0.07365   0.07674
 Alpha virt. eigenvalues --    0.09279   0.10095   0.10266   0.11069   0.11639

 Mulliken charges:
               1
     1  Pb   1.049884
     2  Br  -0.662362
     3  Br  -0.656559
     4  O   -0.479552
     5  C    0.154292
     6  H    0.115560
     7  N   -0.003502
     8  C   -0.216174
     9  C   -0.198558
    10  H    0.115875
    11  H    0.109798
    12  H    0.124890
    13  H    0.116876
    14  H    0.125074
    15  H    0.107481
    16  O   -0.463207
    17  C    0.152867
    18  H    0.115203
    19  N   -0.015528
    20  C   -0.237430
    21  C   -0.194979
    22  H    0.115007
    23  H    0.113367
    24  H    0.118384
    25  H    0.120791
    26  H    0.126567
    27  H    0.122095
    28  O   -0.511309
    29  C    0.224706
    30  H    0.072417
    31  N   -0.007665
    32  C   -0.214748
    33  C   -0.167648
    34  H    0.113902
    35  H    0.108743
    36  H    0.110693
    37  H    0.117413
    38  H    0.123660
    39  H    0.123879
    40  O   -0.479675
    41  C    0.148282
    42  H    0.111676
    43  N    0.003321
    44  C   -0.234665
    45  C   -0.176571
    46  H    0.108737
    47  H    0.106922
    48  H    0.116278
    49  H    0.128872
    50  H    0.117401
    51  H    0.079219
 Sum of Mulliken charges =  -0.00000

 Dipole moment (field-independent basis, Debye):
    X=            -14.4282    Y=             24.2299    Z=              4.8278  Tot=             28.6106
 Quadrupole moment (field-independent basis, Debye-Ang):
   XX=            -95.2889   YY=           -140.8142   ZZ=           -191.7881
   XY=             27.9085   XZ=              3.8395   YZ=             -7.0333

 Normal termination of Gaussian 16 at Wed Nov 11 20:54:01 2020.
