 Gaussian 16, Revision C.01,
 Gaussian 16:  ES64L-G16RevC.01  3-Jul-2019

 ----------------------------------------------------------------------
 # cam-b3lyp/gen pseudo=read TD=NStates=10 Geom=Check Guess=Read empiri
 caldispersion=gd3bj SCRF=(Solvent=DMSO)
 ----------------------------------------------------------------------

 ----------
 PbBr2_dmso
 ----------
 Structure from the checkpoint file:  "02-PbBr2_dmso.chk"
 Charge =  0 Multiplicity = 1

                         Standard orientation:
 ---------------------------------------------------------------------
 Center     Atomic      Atomic             Coordinates (Angstroms)
 Number     Number       Type             X           Y           Z
 ---------------------------------------------------------------------
      1         82           0       -0.027889   -0.071888   -0.211180
      2         35           0       -2.854661    0.586377   -1.658420
      3         35           0        0.562166   -2.729071   -1.792323
      4          8           0       -0.459391    1.730765    1.360077
      5         16           0       -0.876688    3.243924    1.140796
      6          6           0       -2.700264    3.258089    1.239055
      7          6           0       -0.721841    3.598159   -0.645637
      8          1           0       -2.964584    2.974180    2.273816
      9          1           0        0.310626    3.304552   -0.920918
     10          1           0       -3.044546    4.287878    1.023482
     11          1           0       -0.897268    4.681702   -0.785729
     12          1           0       -3.088605    2.530926    0.498404
     13          1           0       -1.456363    2.978901   -1.199322
     14          8           0        1.828443   -0.296387    1.284021
     15         16           0        2.805162   -1.466889    1.728587
     16          6           0        1.786541   -2.971987    1.863862
     17          6           0        3.750115   -1.916247    0.234406
     18          1           0        0.990777   -2.731702    2.590498
     19          1           0        4.363284   -1.033254   -0.021248
     20          1           0        2.447818   -3.780524    2.230015
     21          1           0        4.396163   -2.777702    0.490895
     22          1           0        1.350143   -3.200000    0.871155
     23          1           0        3.030203   -2.165745   -0.571790
     24          8           0        1.692261    1.614444   -1.101561
     25         16           0        3.116647    1.734018   -0.421532
     26          6           0        2.854145    2.669828    1.124602
     27          6           0        3.934563    3.038362   -1.398557
     28          1           0        2.172280    2.036317    1.719697
     29          1           0        4.077917    2.624562   -2.413086
     30          1           0        3.833548    2.787303    1.626807
     31          1           0        4.913739    3.264825   -0.934830
     32          1           0        2.402700    3.652194    0.890433
     33          1           0        3.283027    3.931792   -1.425646
     34          8           0       -0.875550   -1.350486    1.658247
     35         16           0       -2.321925   -1.912932    1.975465
     36          6           0       -2.935031   -2.662791    0.428309
     37          6           0       -3.416271   -0.453977    2.021291
     38          1           0       -2.223918   -3.470453    0.175886
     39          1           0       -3.031967    0.186225    2.835810
     40          1           0       -3.941909   -3.076140    0.630273
     41          1           0       -4.442214   -0.801164    2.249768
     42          1           0       -2.961073   -1.887668   -0.364873
     43          1           0       -3.364526    0.058891    1.039938
 ---------------------------------------------------------------------

 SCF Done:  E(RCAM-B3LYP) =  -2242.89904703     A.U. after   12 cycles

 Excitation energies and oscillator strengths:

 Excited State   1:      Singlet-A      5.2455 eV  236.36 nm  f=0.0839  <S**2>=0.000
      93 -> 94         0.65783
 This state for optimization and/or second-order correction.
 Total Energy, E(TD-HF/TD-DFT) =  -2242.70627980
 Copying the excited state density for this state as the 1-particle RhoCI density.

 Excited State   2:      Singlet-A      5.5451 eV  223.59 nm  f=0.2534  <S**2>=0.000
      84 -> 94         0.11288
      84 -> 95         0.16527
      85 -> 95         0.12625
      93 -> 95         0.59533

 Excited State   3:      Singlet-A      5.6320 eV  220.14 nm  f=0.2890  <S**2>=0.000
      85 -> 96         0.16090
      86 -> 94         0.19107
      91 -> 94         0.11204
      92 -> 94        -0.11699
      93 -> 96         0.52024

 Excited State   4:      Singlet-A      5.9192 eV  209.46 nm  f=0.0330  <S**2>=0.000
      84 -> 94         0.10725
      86 -> 94         0.22820
      87 -> 94         0.13125
      87 -> 95        -0.16220
      87 -> 97        -0.17547
      87 -> 98        -0.10991
      87 -> 99         0.12071
      87 ->101        -0.18628
      90 -> 94        -0.13665
      91 -> 94         0.19003
      93 -> 96        -0.18367
      93 -> 97        -0.17198
      93 -> 99         0.13349

 Excited State   5:      Singlet-A      5.9725 eV  207.59 nm  f=0.0758  <S**2>=0.000
      84 -> 94         0.11057
      86 -> 94        -0.13867
      86 -> 96        -0.13499
      88 -> 94        -0.18697
      88 -> 96        -0.11048
      91 -> 94        -0.17057
      92 -> 94         0.18631
      93 -> 95        -0.11892
      93 -> 96         0.36538
      93 ->103         0.12071

 Excited State   6:      Singlet-A      6.0209 eV  205.92 nm  f=0.0353  <S**2>=0.000
      84 -> 95        -0.11589
      86 -> 97        -0.10479
      87 -> 94         0.33354
      87 -> 95        -0.16120
      87 -> 96        -0.13621
      87 -> 97        -0.10028
      87 ->101        -0.15828
      88 -> 94         0.10791
      91 -> 94        -0.19189
      92 -> 94        -0.13639
      93 -> 95         0.22176

 Excited State   7:      Singlet-A      6.0818 eV  203.86 nm  f=0.0127  <S**2>=0.000
      84 -> 95         0.20129
      85 -> 94         0.20613
      86 -> 96         0.11567
      88 -> 95        -0.21038
      89 -> 94         0.25449
      90 -> 94         0.13469
      92 -> 94         0.11095
      92 -> 95         0.21213
      93 -> 94        -0.16755
      93 -> 95        -0.15856

 Excited State   8:      Singlet-A      6.2454 eV  198.52 nm  f=0.0212  <S**2>=0.000
      88 -> 94         0.13836
      92 -> 94         0.60906

 Excited State   9:      Singlet-A      6.3214 eV  196.13 nm  f=0.0060  <S**2>=0.000
      90 -> 94         0.43548
      91 -> 94         0.44622
      92 -> 95        -0.14278

 Excited State  10:      Singlet-A      6.3597 eV  194.95 nm  f=0.0189  <S**2>=0.000
      89 -> 94         0.51725
      92 -> 95        -0.29970
      92 -> 96         0.23366
      92 ->103         0.11255

 The electronic state is 1-A.
 Alpha  occ. eigenvalues --  -89.08448 -89.08326 -89.08174 -89.07998 -19.19268
 Alpha  occ. eigenvalues --  -19.18964 -19.18759 -19.18255 -10.28534 -10.28338
 Alpha  occ. eigenvalues --  -10.28284 -10.28272 -10.28213 -10.28086 -10.27947
 Alpha  occ. eigenvalues --  -10.27653  -8.12380  -8.12258  -8.12100  -8.11911
 Alpha  occ. eigenvalues --   -6.08895  -6.08759  -6.08708  -6.08601  -6.08597
 Alpha  occ. eigenvalues --   -6.08438  -6.08394  -6.08267  -6.08164  -6.08048
 Alpha  occ. eigenvalues --   -6.07892  -6.07703  -1.09477  -1.08965  -1.08751
 Alpha  occ. eigenvalues --   -1.08340  -0.88908  -0.88703  -0.88455  -0.88291
 Alpha  occ. eigenvalues --   -0.80142  -0.80096  -0.79951  -0.79765  -0.74632
 Alpha  occ. eigenvalues --   -0.74271  -0.70205  -0.69329  -0.69039  -0.68798
 Alpha  occ. eigenvalues --   -0.58128  -0.54759  -0.54393  -0.54245  -0.53956
 Alpha  occ. eigenvalues --   -0.53795  -0.53637  -0.53155  -0.53009  -0.52630
 Alpha  occ. eigenvalues --   -0.52377  -0.52050  -0.51539  -0.49386  -0.49114
 Alpha  occ. eigenvalues --   -0.49035  -0.48930  -0.48567  -0.48395  -0.47618
 Alpha  occ. eigenvalues --   -0.46174  -0.45893  -0.45788  -0.45589  -0.44584
 Alpha  occ. eigenvalues --   -0.43551  -0.43218  -0.43060  -0.42315  -0.37036
 Alpha  occ. eigenvalues --   -0.36473  -0.36316  -0.35543  -0.33958  -0.33026
 Alpha  occ. eigenvalues --   -0.32919  -0.31929  -0.30294  -0.29484  -0.29398
 Alpha  occ. eigenvalues --   -0.29218  -0.28900  -0.26369
 Alpha virt. eigenvalues --    0.02354   0.03469   0.03913   0.05694   0.05736
 Alpha virt. eigenvalues --    0.06241   0.06841   0.07197   0.07652   0.08233
 Alpha virt. eigenvalues --    0.08500   0.09306   0.09757   0.10069   0.10348

 Mulliken charges:
               1
     1  Pb   1.153353
     2  Br  -0.668867
     3  Br  -0.694543
     4  O   -0.680639
     5  S    0.564912
     6  C   -0.279428
     7  C   -0.323444
     8  H    0.134743
     9  H    0.132906
    10  H    0.141235
    11  H    0.139998
    12  H    0.101277
    13  H    0.097603
    14  O   -0.683981
    15  S    0.570234
    16  C   -0.280367
    17  C   -0.280378
    18  H    0.134496
    19  H    0.129593
    20  H    0.140797
    21  H    0.138226
    22  H    0.088558
    23  H    0.092267
    24  O   -0.675628
    25  S    0.569474
    26  C   -0.319689
    27  C   -0.278206
    28  H    0.142986
    29  H    0.131283
    30  H    0.143689
    31  H    0.127245
    32  H    0.127759
    33  H    0.129007
    34  O   -0.674199
    35  S    0.563097
    36  C   -0.275405
    37  C   -0.259728
    38  H    0.120796
    39  H    0.127421
    40  H    0.135197
    41  H    0.136004
    42  H    0.084524
    43  H    0.075823
 Sum of Mulliken charges =  -0.00000

 Dipole moment (field-independent basis, Debye):
    X=              8.5306    Y=              9.6625    Z=             13.9719  Tot=             19.0092
 Quadrupole moment (field-independent basis, Debye-Ang):
   XX=           -126.2415   YY=           -140.6019   ZZ=           -193.0524
   XY=             13.8560   XZ=            -22.9881   YZ=            -21.3079

 Normal termination of Gaussian 16 at Wed Nov 11 20:09:21 2020.
