 Gaussian 16, Revision C.01,
 Gaussian 16:  ES64L-G16RevC.01  3-Jul-2019

 ----------------------------------------------------------------------
 # cam-b3lyp/gen pseudo=read TD=NStates=10 Geom=Check Guess=Read empiri
 caldispersion=gd3bj SCRF=(read)
 ----------------------------------------------------------------------

 ---------
 PbBr2_gbl
 ---------
 Structure from the checkpoint file:  "02-PbBr2_gbl.chk"
 Charge =  0 Multiplicity = 1

                         Standard orientation:
 ---------------------------------------------------------------------
 Center     Atomic      Atomic             Coordinates (Angstroms)
 Number     Number       Type             X           Y           Z
 ---------------------------------------------------------------------
      1         82           0        0.378225   -0.397216   -0.238330
      2         35           0        1.381637   -1.388595    2.277905
      3         35           0       -1.396951   -2.708748   -0.779268
      4          8           0        1.527720    1.951726    0.326524
      5          6           0        1.040152    3.082786    0.239783
      6          6           0       -0.374389    3.490686   -0.101758
      7          8           0        1.811603    4.164706    0.473401
      8          6           0       -0.227909    4.973291   -0.457380
      9          6           0        0.997473    5.381150    0.366650
     10          1           0        1.634520    6.153056   -0.100195
     11          1           0        0.736772    5.691840    1.398949
     12          1           0       -1.115968    5.581152   -0.206969
     13          1           0       -0.017631    5.090517   -1.538784
     14          1           0       -0.992192    3.315425    0.804301
     15          1           0       -0.779956    2.834957   -0.894183
     16          8           0       -1.195353    0.924705   -2.119190
     17          6           0       -2.366774    0.599164   -2.318205
     18          6           0       -3.523554    0.541334   -1.342235
     19          8           0       -2.767681    0.207602   -3.549743
     20          6           0       -4.749325    0.492880   -2.258587
     21          6           0       -4.178105   -0.188142   -3.506514
     22          1           0       -4.633955    0.133082   -4.459806
     23          1           0       -4.204642   -1.294871   -3.436878
     24          1           0       -5.601814   -0.067603   -1.834150
     25          1           0       -5.090694    1.518139   -2.503272
     26          1           0       -3.395404   -0.403988   -0.769667
     27          1           0       -3.485384    1.381952   -0.627349
     28          8           0       -1.363261    0.783353    1.167713
     29          6           0       -2.200828    0.372097    1.980509
     30          6           0       -2.406997   -1.017120    2.528453
     31          8           0       -3.093988    1.237504    2.494298
     32          6           0       -3.818616   -0.944306    3.120422
     33          6           0       -3.945703    0.541383    3.469658
     34          1           0       -4.961371    0.960235    3.360877
     35          1           0       -3.549656    0.783418    4.476542
     36          1           0       -3.964060   -1.591732    4.003577
     37          1           0       -4.568837   -1.222880    2.354101
     38          1           0       -1.616760   -1.183702    3.292363
     39          1           0       -2.253431   -1.770706    1.731617
     40          8           0        2.659419   -1.197889   -1.311865
     41          6           0        3.802122   -0.856830   -0.993496
     42          6           0        4.257925    0.069257    0.112261
     43          8           0        4.860458   -1.350735   -1.671924
     44          6           0        5.704931    0.387310   -0.277243
     45          6           0        6.104843   -0.861597   -1.069133
     46          1           0        6.812769   -0.678753   -1.896881
     47          1           0        6.495519   -1.672727   -0.421224
     48          1           0        6.370963    0.560630    0.587171
     49          1           0        5.739383    1.281807   -0.930117
     50          1           0        4.181331   -0.505816    1.061231
     51          1           0        3.579239    0.937490    0.206716
 ---------------------------------------------------------------------

 SCF Done:  E(RCAM-B3LYP) =  -1255.89966857     A.U. after   11 cycles

 Excitation energies and oscillator strengths:

 Excited State   1:      Singlet-A      5.5298 eV  224.21 nm  f=0.1342  <S**2>=0.000
      93 -> 105        0.11363
     101 -> 102        0.63449
 This state for optimization and/or second-order correction.
 Total Energy, E(TD-HF/TD-DFT) =  -1255.69645045
 Copying the excited state density for this state as the 1-particle RhoCI density.

 Excited State   2:      Singlet-A      5.7424 eV  215.91 nm  f=0.0599  <S**2>=0.000
      91 -> 103        0.10834
      94 -> 103        0.14476
      95 -> 102       -0.10077
      95 -> 104        0.14876
      98 -> 102       -0.12687
     100 -> 102       -0.27221
     101 -> 103        0.43287
     101 -> 104       -0.19474

 Excited State   3:      Singlet-A      5.7922 eV  214.06 nm  f=0.0143  <S**2>=0.000
      93 -> 104        0.13858
      95 -> 102        0.27325
      95 -> 104       -0.35811
      95 -> 108       -0.17702
     100 -> 102       -0.17703
     101 -> 103        0.12582
     101 -> 104        0.21229
     101 -> 105        0.18483

 Excited State   4:      Singlet-A      5.8253 eV  212.84 nm  f=0.0112  <S**2>=0.000
      93 -> 102        0.15854
      93 -> 104        0.11146
      93 -> 107        0.14388
      94 -> 102       -0.14067
      94 -> 105        0.21485
      95 -> 104        0.21189
      98 -> 102       -0.11227
     101 -> 103       -0.15739
     101 -> 105        0.37642

 Excited State   5:      Singlet-A      5.8449 eV  212.12 nm  f=0.0138  <S**2>=0.000
      89 -> 103        0.12120
      91 -> 103        0.13363
      94 -> 103        0.13434
      97 -> 102        0.21816
      98 -> 102       -0.16510
      98 -> 103       -0.10703
      99 -> 102        0.17320
     100 -> 102        0.44126
     101 -> 103        0.16708
     101 -> 104        0.10282
     101 -> 106       -0.11068

 Excited State   6:      Singlet-A      5.9097 eV  209.80 nm  f=0.0424  <S**2>=0.000
      98 -> 102       -0.38232
      98 -> 108       -0.11780
      99 -> 102        0.40188
     101 -> 103       -0.19388
     101 -> 105       -0.13851

 Excited State   7:      Singlet-A      5.9768 eV  207.44 nm  f=0.0461  <S**2>=0.000
      93 -> 102       -0.10309
      93 -> 104       -0.11372
      93 -> 105       -0.20686
      93 -> 106        0.14110
      94 -> 107       -0.10905
      95 -> 104       -0.10079
     100 -> 102        0.24062
     101 -> 102        0.14002
     101 -> 104       -0.12377
     101 -> 105        0.17875
     101 -> 106        0.33274
     101 -> 107       -0.20298

 Excited State   8:      Singlet-A      6.0313 eV  205.57 nm  f=0.0730  <S**2>=0.000
      94 -> 105       -0.12931
      94 -> 107        0.10278
      97 -> 102        0.17758
      99 -> 102        0.24150
      99 -> 103       -0.12199
      99 -> 107       -0.12629
     100 -> 103        0.13381
     101 -> 102       -0.11251
     101 -> 105        0.21675
     101 -> 106        0.34418
     101 -> 107        0.19625

 Excited State   9:      Singlet-A      6.0694 eV  204.28 nm  f=0.1146  <S**2>=0.000
      89 -> 103       -0.15811
      91 -> 103       -0.16616
      94 -> 103       -0.17620
      95 -> 102        0.10435
      95 -> 104       -0.10691
      97 -> 102        0.14474
      98 -> 103        0.15696
     100 -> 102        0.11230
     100 -> 103        0.23722
     101 -> 102        0.11346
     101 -> 103        0.20392
     101 -> 104       -0.22290
     101 -> 106       -0.17392
     101 -> 108        0.13332

 Excited State  10:      Singlet-A      6.1119 eV  202.86 nm  f=0.0344  <S**2>=0.000
      97 -> 102       -0.20466
      98 -> 102        0.37757
      98 -> 107       -0.13335
      99 -> 102        0.32108
      99 -> 103       -0.22569
      99 -> 107       -0.18502
     100 -> 103       -0.17996
     101 -> 106       -0.11990

 The electronic state is 1-A.
 Alpha  occ. eigenvalues --  -19.27109 -19.26547 -19.26422 -19.26276 -19.22454
 Alpha  occ. eigenvalues --  -19.21673 -19.21575 -19.21089 -10.41387 -10.40745
 Alpha  occ. eigenvalues --  -10.40688 -10.40435 -10.32272 -10.32020 -10.31940
 Alpha  occ. eigenvalues --  -10.31893 -10.27528 -10.27513 -10.27238 -10.27186
 Alpha  occ. eigenvalues --  -10.27037 -10.26850 -10.26824 -10.26794  -1.21077
 Alpha  occ. eigenvalues --   -1.20401  -1.20278  -1.20017  -1.12694  -1.12031
 Alpha  occ. eigenvalues --   -1.11930  -1.11686  -0.89802  -0.89481  -0.89446
 Alpha  occ. eigenvalues --   -0.89400  -0.82306  -0.81902  -0.81788  -0.81719
 Alpha  occ. eigenvalues --   -0.77152  -0.76247  -0.71316  -0.71038  -0.70912
 Alpha  occ. eigenvalues --   -0.70819  -0.65550  -0.64838  -0.64470  -0.64311
 Alpha  occ. eigenvalues --   -0.61116  -0.60230  -0.59940  -0.59774  -0.59727
 Alpha  occ. eigenvalues --   -0.59278  -0.59050  -0.58616  -0.56130  -0.55131
 Alpha  occ. eigenvalues --   -0.54436  -0.54292  -0.53499  -0.51604  -0.51002
 Alpha  occ. eigenvalues --   -0.50854  -0.50704  -0.50561  -0.50226  -0.50146
 Alpha  occ. eigenvalues --   -0.49887  -0.49237  -0.48616  -0.48308  -0.46674
 Alpha  occ. eigenvalues --   -0.45375  -0.44921  -0.44856  -0.44692  -0.43828
 Alpha  occ. eigenvalues --   -0.43524  -0.43367  -0.43319  -0.42108  -0.41966
 Alpha  occ. eigenvalues --   -0.41760  -0.41452  -0.38866  -0.38426  -0.38218
 Alpha  occ. eigenvalues --   -0.38050  -0.37997  -0.37345  -0.36690  -0.36409
 Alpha  occ. eigenvalues --   -0.33407  -0.31785  -0.31252  -0.30792  -0.30339
 Alpha  occ. eigenvalues --   -0.28934
 Alpha virt. eigenvalues --    0.00906   0.01767   0.02495   0.02902   0.04008
 Alpha virt. eigenvalues --    0.04354   0.05751   0.06258   0.07706   0.07902
 Alpha virt. eigenvalues --    0.08339   0.10030   0.10524   0.10758   0.10938

 Mulliken charges:
               1
     1  Pb   1.084798
     2  Br  -0.636494
     3  Br  -0.637127
     4  O   -0.424204
     5  C    0.366452
     6  C   -0.228249
     7  O   -0.214960
     8  C   -0.186742
     9  C    0.007234
    10  H    0.116710
    11  H    0.110863
    12  H    0.119630
    13  H    0.115801
    14  H    0.139585
    15  H    0.143708
    16  O   -0.404377
    17  C    0.345301
    18  C   -0.211380
    19  O   -0.212666
    20  C   -0.187237
    21  C    0.006778
    22  H    0.115548
    23  H    0.106381
    24  H    0.119704
    25  H    0.116339
    26  H    0.104241
    27  H    0.140391
    28  O   -0.449884
    29  C    0.385871
    30  C   -0.184175
    31  O   -0.217631
    32  C   -0.188418
    33  C    0.004755
    34  H    0.118839
    35  H    0.116657
    36  H    0.123051
    37  H    0.119271
    38  H    0.130581
    39  H    0.095539
    40  O   -0.422324
    41  C    0.357184
    42  C   -0.247204
    43  O   -0.211655
    44  C   -0.183087
    45  C    0.006511
    46  H    0.115930
    47  H    0.110739
    48  H    0.119513
    49  H    0.115157
    50  H    0.125885
    51  H    0.142868
 Sum of Mulliken charges =  -0.00000

 Dipole moment (field-independent basis, Debye):
    X=             -6.2381    Y=             15.8880    Z=              0.8824  Tot=             17.0916
 Quadrupole moment (field-independent basis, Debye-Ang):
   XX=           -102.1174   YY=           -182.4956   ZZ=           -186.6707
   XY=             -2.9547   XZ=            -16.0413   YZ=             -4.4370

 Normal termination of Gaussian 16 at Wed Nov 11 20:49:04 2020.
