 Gaussian 16, Revision C.01,
 Gaussian 16:  ES64L-G16RevC.01  3-Jul-2019

 ----------------------------------------------------------------------
 # cam-b3lyp/gen pseudo=read TD=NStates=10 Geom=Check Guess=Read empiri
 caldispersion=gd3bj SCRF=(read)
 ----------------------------------------------------------------------

 ---------
 PbBr2_nmp
 ---------
 Structure from the checkpoint file:  "03-PbBr2_nmp.chk"
 Charge =  0 Multiplicity = 1

                         Standard orientation:
 ---------------------------------------------------------------------
 Center     Atomic      Atomic             Coordinates (Angstroms)
 Number     Number       Type             X           Y           Z
 ---------------------------------------------------------------------
      1         82           0       -0.421132   -0.825299   -0.246566
      2         35           0       -2.003271   -2.915458   -1.730721
      3         35           0       -1.261512   -1.096132    2.680119
      4          8           0        0.308027    0.313368   -2.362623
      5          6           0        1.285176    1.103784   -2.420664
      6          6           0        2.753548    0.729497   -2.481184
      7          7           0        1.181832    2.454912   -2.403899
      8          6           0        3.460717    2.039264   -2.863560
      9          6           0        2.474708    3.140938   -2.422894
     10          6           0       -0.068812    3.165365   -2.229960
     11          1           0       -0.860571    2.427391   -2.005162
     12          1           0        0.017064    3.879237   -1.384827
     13          1           0       -0.327165    3.740670   -3.142982
     14          1           0        3.021184    0.372219   -1.464622
     15          1           0        2.918799   -0.106831   -3.184783
     16          1           0        4.450767    2.158815   -2.387212
     17          1           0        3.602651    2.086262   -3.960866
     18          1           0        2.444211    4.003213   -3.118272
     19          1           0        2.696602    3.533005   -1.404800
     20          8           0        1.531180    0.686108    0.566829
     21          6           0        1.426354    1.824429    1.090519
     22          6           0        0.159398    2.499671    1.575685
     23          7           0        2.481645    2.640479    1.342186
     24          6           0        0.584862    3.956035    1.814570
     25          6           0        2.104285    3.864293    2.054707
     26          6           0        3.864322    2.243746    1.167419
     27          1           0        3.881002    1.265783    0.653298
     28          1           0        4.370883    2.149533    2.151096
     29          1           0        4.411600    2.993192    0.560964
     30          1           0       -0.147758    1.976228    2.507335
     31          1           0       -0.663088    2.357654    0.849140
     32          1           0        0.060221    4.434772    2.660659
     33          1           0        0.389340    4.562615    0.907458
     34          1           0        2.665430    4.730324    1.651673
     35          1           0        2.359211    3.762747    3.133422
     36          8           0       -2.129747    1.098044   -0.420261
     37          6           0       -3.342031    1.042113   -0.078830
     38          6           0       -4.145689   -0.199086    0.251939
     39          7           0       -4.132223    2.130405    0.082130
     40          6           0       -5.599679    0.296666    0.263887
     41          6           0       -5.473323    1.800728    0.572267
     42          6           0       -3.661286    3.496461   -0.014177
     43          1           0       -2.630872    3.483545   -0.411517
     44          1           0       -3.663228    3.984084    0.983501
     45          1           0       -4.313149    4.081696   -0.693321
     46          1           0       -3.793464   -0.549316    1.247963
     47          1           0       -3.929346   -1.011943   -0.468565
     48          1           0       -6.236401   -0.224771    1.000988
     49          1           0       -6.052940    0.161050   -0.737967
     50          1           0       -6.232797    2.420871    0.056180
     51          1           0       -5.536814    2.019521    1.661975
     52          8           0        1.694047   -2.206761   -0.366021
     53          6           0        2.611574   -2.094776    0.488129
     54          6           0        2.466140   -2.048210    1.996988
     55          7           0        3.932344   -2.050267    0.179837
     56          6           0        3.841296   -1.570584    2.483392
     57          6           0        4.800397   -2.006148    1.358733
     58          6           0        4.453730   -2.250274   -1.156576
     59          1           0        3.596282   -2.328219   -1.848573
     60          1           0        5.053573   -3.183170   -1.204074
     61          1           0        5.099648   -1.400357   -1.455961
     62          1           0        2.237500   -3.083400    2.332719
     63          1           0        1.611071   -1.413270    2.294795
     64          1           0        4.134055   -1.988962    3.463038
     65          1           0        3.843901   -0.466087    2.566609
     66          1           0        5.633530   -1.294171    1.192985
     67          1           0        5.241914   -3.012055    1.539665
 ---------------------------------------------------------------------

 SCF Done:  E(RCAM-B3LYP) =  -1333.64487927     A.U. after   12 cycles

 Excitation energies and oscillator strengths:

 Excited State   1:      Singlet-A      5.5107 eV  224.99 nm  f=0.3122  <S**2>=0.000
     117 -> 118        0.64801
     117 -> 119        0.10562
 This state for optimization and/or second-order correction.
 Total Energy, E(TD-HF/TD-DFT) =  -1333.44236559
 Copying the excited state density for this state as the 1-particle RhoCI density.

 Excited State   2:      Singlet-A      5.6790 eV  218.32 nm  f=0.1757  <S**2>=0.000
     107 -> 119        0.10692
     117 -> 119        0.46737
     117 -> 120        0.33502
     117 -> 121       -0.22378

 Excited State   3:      Singlet-A      5.7759 eV  214.66 nm  f=0.1600  <S**2>=0.000
     104 -> 120       -0.10037
     105 -> 119        0.12716
     107 -> 119        0.11178
     117 -> 119        0.36865
     117 -> 120       -0.31215
     117 -> 121        0.32183

 Excited State   4:      Singlet-A      5.8695 eV  211.23 nm  f=0.0468  <S**2>=0.000
     104 -> 119       -0.16242
     104 -> 120        0.18023
     104 -> 121        0.16386
     105 -> 120        0.14824
     105 -> 121        0.13537
     117 -> 118        0.10272
     117 -> 120        0.29801
     117 -> 121        0.38346

 Excited State   5:      Singlet-A      5.9457 eV  208.53 nm  f=0.0030  <S**2>=0.000
     106 -> 118       -0.45557
     106 -> 120       -0.24752
     106 -> 127       -0.16242
     107 -> 118       -0.24129
     107 -> 120       -0.14550

 Excited State   6:      Singlet-A      6.1025 eV  203.17 nm  f=0.0681  <S**2>=0.000
     104 -> 119        0.12058
     104 -> 121        0.10073
     105 -> 119       -0.13310
     105 -> 120        0.10111
     105 -> 121       -0.10073
     105 -> 124        0.10820
     107 -> 119       -0.20664
     107 -> 120       -0.11580
     107 -> 124        0.11939
     116 -> 118        0.14050
     117 -> 119        0.13719
     117 -> 122       -0.11862
     117 -> 123       -0.11553
     117 -> 124        0.32381
     117 -> 126       -0.12094

 Excited State   7:      Singlet-A      6.1260 eV  202.39 nm  f=0.1134  <S**2>=0.000
     105 -> 118        0.12343
     105 -> 120       -0.20186
     105 -> 126       -0.10617
     106 -> 120       -0.11449
     107 -> 118       -0.11897
     107 -> 120        0.18547
     107 -> 121       -0.15948
     107 -> 126        0.11016
     115 -> 118        0.13919
     117 -> 121        0.20294
     117 -> 123        0.14932
     117 -> 124        0.17995
     117 -> 126        0.26092

 Excited State   8:      Singlet-A      6.2342 eV  198.88 nm  f=0.0338  <S**2>=0.000
     113 -> 118       -0.10180
     114 -> 118        0.17668
     115 -> 118       -0.26928
     116 -> 118        0.51147
     116 -> 121       -0.12946
     116 -> 127       -0.11255

 Excited State   9:      Singlet-A      6.2777 eV  197.50 nm  f=0.0639  <S**2>=0.000
     113 -> 118       -0.32020
     113 -> 121        0.10691
     115 -> 118        0.46394
     115 -> 121       -0.11069
     116 -> 118        0.15241

 Excited State  10:      Singlet-A      6.3162 eV  196.29 nm  f=0.0756  <S**2>=0.000
     114 -> 118        0.37174
     114 -> 119        0.29712
     114 -> 121        0.10422
     114 -> 124        0.20879
     115 -> 119        0.14819
     116 -> 119       -0.29130
     116 -> 121       -0.14030
     116 -> 124       -0.15308

 The electronic state is 1-A.
 Alpha  occ. eigenvalues --  -19.19477 -19.19193 -19.19004 -19.18865 -14.44115
 Alpha  occ. eigenvalues --  -14.43913 -14.43791 -14.43747 -10.37147 -10.36838
 Alpha  occ. eigenvalues --  -10.36833 -10.36803 -10.29586 -10.29503 -10.29356
 Alpha  occ. eigenvalues --  -10.29311 -10.28877 -10.28587 -10.28452 -10.28278
 Alpha  occ. eigenvalues --  -10.26389 -10.26293 -10.26273 -10.26259 -10.26059
 Alpha  occ. eigenvalues --  -10.26007 -10.26002 -10.25841  -1.13604  -1.13101
 Alpha  occ. eigenvalues --   -1.12965  -1.12928  -1.04467  -1.04204  -1.04154
 Alpha  occ. eigenvalues --   -1.04096  -0.89260  -0.88962  -0.88844  -0.88830
 Alpha  occ. eigenvalues --   -0.80715  -0.80589  -0.80407  -0.80386  -0.78440
 Alpha  occ. eigenvalues --   -0.78089  -0.78011  -0.77891  -0.75015  -0.74640
 Alpha  occ. eigenvalues --   -0.69641  -0.69390  -0.69233  -0.69207  -0.62688
 Alpha  occ. eigenvalues --   -0.62057  -0.61793  -0.61745  -0.60076  -0.59029
 Alpha  occ. eigenvalues --   -0.58753  -0.58265  -0.58119  -0.57795  -0.57553
 Alpha  occ. eigenvalues --   -0.57302  -0.55060  -0.54241  -0.53973  -0.53463
 Alpha  occ. eigenvalues --   -0.52810  -0.51570  -0.51140  -0.50953  -0.50890
 Alpha  occ. eigenvalues --   -0.49905  -0.49679  -0.49187  -0.48897  -0.48567
 Alpha  occ. eigenvalues --   -0.48448  -0.48077  -0.47726  -0.47457  -0.47447
 Alpha  occ. eigenvalues --   -0.47332  -0.45989  -0.45678  -0.45324  -0.45243
 Alpha  occ. eigenvalues --   -0.45086  -0.44951  -0.44909  -0.44728  -0.43721
 Alpha  occ. eigenvalues --   -0.42742  -0.42647  -0.42402  -0.42307  -0.40654
 Alpha  occ. eigenvalues --   -0.40431  -0.40240  -0.39954  -0.35942  -0.35503
 Alpha  occ. eigenvalues --   -0.34820  -0.34078  -0.32667  -0.32494  -0.32202
 Alpha  occ. eigenvalues --   -0.32150  -0.31449  -0.29986  -0.29757  -0.29450
 Alpha  occ. eigenvalues --   -0.29297  -0.26598
 Alpha virt. eigenvalues --    0.02849   0.03798   0.03992   0.04400   0.05305
 Alpha virt. eigenvalues --    0.05930   0.06352   0.07124   0.07272   0.07683
 Alpha virt. eigenvalues --    0.08177   0.08373   0.09496   0.09606   0.10045

 Mulliken charges:
               1
     1  Pb   1.094885
     2  Br  -0.686563
     3  Br  -0.677384
     4  O   -0.512346
     5  C    0.237197
     6  C   -0.175716
     7  N   -0.005408
     8  C   -0.195000
     9  C   -0.109798
    10  C   -0.236832
    11  H    0.125539
    12  H    0.112911
    13  H    0.125052
    14  H    0.115429
    15  H    0.130040
    16  H    0.118283
    17  H    0.115512
    18  H    0.119679
    19  H    0.111317
    20  O   -0.517310
    21  C    0.267628
    22  C   -0.191047
    23  N   -0.027820
    24  C   -0.198878
    25  C   -0.091312
    26  C   -0.253076
    27  H    0.130553
    28  H    0.129235
    29  H    0.129314
    30  H    0.107463
    31  H    0.121510
    32  H    0.121302
    33  H    0.116426
    34  H    0.115753
    35  H    0.113758
    36  O   -0.514685
    37  C    0.289399
    38  C   -0.177757
    39  N   -0.031780
    40  C   -0.189687
    41  C   -0.078873
    42  C   -0.214455
    43  H    0.125864
    44  H    0.113005
    45  H    0.117319
    46  H    0.091537
    47  H    0.092764
    48  H    0.113582
    49  H    0.109553
    50  H    0.110145
    51  H    0.104551
    52  O   -0.518567
    53  C    0.270829
    54  C   -0.153504
    55  N   -0.027961
    56  C   -0.208721
    57  C   -0.098648
    58  C   -0.234786
    59  H    0.124720
    60  H    0.121061
    61  H    0.121294
    62  H    0.126445
    63  H    0.068068
    64  H    0.118523
    65  H    0.119658
    66  H    0.115720
    67  H    0.115092
 Sum of Mulliken charges =  -0.00000

 Dipole moment (field-independent basis, Debye):
    X=             15.0812    Y=             22.3930    Z=              1.4223  Tot=             27.0354
 Quadrupole moment (field-independent basis, Debye-Ang):
   XX=           -138.1634   YY=           -200.0104   ZZ=           -234.1777
   XY=            -31.9613   XZ=             -1.9547   YZ=            -11.4098

 Normal termination of Gaussian 16 at Wed Nov 25 17:17:56 2020.
