 Gaussian 16, Revision C.01,
 Gaussian 16:  ES64L-G16RevC.01  3-Jul-2019

 ----------------------------------------------------------------------
 # cam-b3lyp/gen pseudo=read TD=NStates=10 Geom=Check Guess=Read empiri
 caldispersion=gd3bj SCRF=(read)
 ----------------------------------------------------------------------

 --------
 PbBr2_pc
 --------
 Structure from the checkpoint file:  "02-PbBr2_pc.chk"
 Charge =  0 Multiplicity = 1

                         Standard orientation:
 ---------------------------------------------------------------------
 Center     Atomic      Atomic             Coordinates (Angstroms)
 Number     Number       Type             X           Y           Z
 ---------------------------------------------------------------------
      1         82           0       -0.027394   -0.783071   -0.233273
      2         35           0        1.987480    0.499032   -1.892892
      3         35           0        0.541803   -3.512297   -1.019324
      4          8           0       -0.490726    1.827210    0.579726
      5          6           0        0.451089    2.605341    0.456105
      6          8           0        1.569826    2.549658    1.195591
      7          8           0        0.455993    3.625517   -0.427896
      8          6           0        2.447763    3.671852    0.834176
      9          6           0        1.789021    4.203864   -0.450417
     10          6           0        3.867015    3.174976    0.670559
     11          1           0        1.690679    5.302636   -0.475369
     12          1           0        2.298827    3.837453   -1.363659
     13          1           0        3.914721    2.417774   -0.136774
     14          1           0        4.233179    2.726987    1.613218
     15          1           0        4.527610    4.024898    0.407814
     16          1           0        2.365357    4.402260    1.664507
     17          8           0       -1.792276   -0.775093    1.943516
     18          6           0       -2.887170   -1.107082    1.510498
     19          8           0       -4.064099   -0.752274    2.058517
     20          8           0       -3.040350   -1.884156    0.410013
     21          6           0       -5.148328   -1.451745    1.346453
     22          6           0       -4.448659   -1.902573    0.056181
     23          6           0       -6.328321   -0.527382    1.152392
     24          1           0       -4.715707   -2.926746   -0.255755
     25          1           0       -4.599779   -1.187824   -0.776595
     26          1           0       -6.048879    0.347060    0.533212
     27          1           0       -6.719551   -0.176159    2.125704
     28          1           0       -7.139463   -1.077326    0.635161
     29          1           0       -5.418335   -2.320318    1.981481
     30          8           0        1.544412   -0.565323    1.696944
     31          6           0        2.768647   -0.706598    1.694361
     32          8           0        3.418882   -1.621314    0.965090
     33          8           0        3.582690    0.045298    2.453468
     34          6           0        4.869929   -1.401479    1.104460
     35          6           0        4.934926   -0.484493    2.340865
     36          6           0        5.415990   -0.800135   -0.174790
     37          1           0        5.166511   -1.027499    3.276435
     38          1           0        5.623840    0.369490    2.213342
     39          1           0        4.954772    0.186223   -0.378155
     40          1           0        5.213604   -1.466281   -1.034424
     41          1           0        6.512547   -0.673582   -0.078742
     42          1           0        5.307144   -2.395712    1.308520
     43          8           0       -1.892623    0.211605   -1.947915
     44          6           0       -2.461702    1.193945   -1.484875
     45          8           0       -3.323062    1.134193   -0.448329
     46          8           0       -2.306837    2.441852   -1.960883
     47          6           0       -3.824704    2.481824   -0.143443
     48          6           0       -2.961565    3.373261   -1.059168
     49          6           0       -3.681562    2.752870    1.338770
     50          1           0       -3.553856    4.080844   -1.664996
     51          1           0       -2.168953    3.909970   -0.503275
     52          1           0       -2.618127    2.677080    1.635797
     53          1           0       -4.273803    2.027476    1.927717
     54          1           0       -4.052127    3.772745    1.563619
     55          1           0       -4.887638    2.488556   -0.458307
 ---------------------------------------------------------------------

 SCF Done:  E(RCAM-B3LYP) =  -1556.86107316     A.U. after   11 cycles

 Excitation energies and oscillator strengths:

 Excited State   1:      Singlet-A      5.5091 eV  225.05 nm  f=0.0900  <S**2>=0.000
     117 -> 118        0.67315
     117 -> 119       -0.15371
 This state for optimization and/or second-order correction.
 Total Energy, E(TD-HF/TD-DFT) =  -1556.65861589
 Copying the excited state density for this state as the 1-particle RhoCI density.

 Excited State   2:      Singlet-A      5.8105 eV  213.38 nm  f=0.1921  <S**2>=0.000
     115 -> 118       -0.14836
     116 -> 118       -0.11583
     116 -> 120        0.21828
     117 -> 118        0.13081
     117 -> 119        0.57475
     117 -> 120       -0.19456

 Excited State   3:      Singlet-A      5.9312 eV  209.04 nm  f=0.1683  <S**2>=0.000
     114 -> 118       -0.16074
     116 -> 118       -0.15370
     116 -> 120        0.13303
     117 -> 119        0.11634
     117 -> 120        0.61311

 Excited State   4:      Singlet-A      5.9929 eV  206.89 nm  f=0.0352  <S**2>=0.000
     113 -> 120       -0.10262
     115 -> 118       -0.18027
     116 -> 118        0.58887
     116 -> 119        0.20222
     116 -> 123       -0.10066
     117 -> 119        0.14045
     117 -> 120        0.10464

 Excited State   5:      Singlet-A      6.0422 eV  205.20 nm  f=0.0012  <S**2>=0.000
     113 -> 118        0.10787
     113 -> 120       -0.14316
     116 -> 118       -0.23680
     116 -> 119        0.62021

 Excited State   6:      Singlet-A      6.0707 eV  204.23 nm  f=0.0125  <S**2>=0.000
     114 -> 118       -0.15787
     114 -> 119       -0.23306
     114 -> 120        0.21926
     115 -> 118        0.34282
     115 -> 119        0.35504
     115 -> 120       -0.25286
     116 -> 118        0.11024
     116 -> 120        0.14283

 Excited State   7:      Singlet-A      6.1456 eV  201.75 nm  f=0.0233  <S**2>=0.000
     113 -> 119        0.12744
     114 -> 120        0.15673
     115 -> 118       -0.24481
     115 -> 119        0.40317
     116 -> 118       -0.12709
     116 -> 120       -0.39623

 Excited State   8:      Singlet-A      6.1826 eV  200.54 nm  f=0.0164  <S**2>=0.000
     114 -> 118        0.16644
     114 -> 119        0.35206
     115 -> 118        0.23900
     115 -> 119        0.23218
     115 -> 120        0.38847
     115 -> 123       -0.10433
     116 -> 120        0.17213

 Excited State   9:      Singlet-A      6.3107 eV  196.47 nm  f=0.1625  <S**2>=0.000
     113 -> 118        0.30687
     113 -> 119        0.29206
     113 -> 120       -0.18152
     114 -> 118        0.27910
     115 -> 118        0.27182
     115 -> 120       -0.11945
     116 -> 120       -0.14954
     117 -> 119        0.17366
     117 -> 120        0.10956

 Excited State  10:      Singlet-A      6.3529 eV  195.16 nm  f=0.0523  <S**2>=0.000
     112 -> 119        0.10353
     113 -> 118       -0.12947
     113 -> 119       -0.12694
     114 -> 118        0.50631
     115 -> 118       -0.21144
     115 -> 119        0.20799
     115 -> 120       -0.24157

 The electronic state is 1-A.
 Alpha  occ. eigenvalues --  -19.28566 -19.28332 -19.27954 -19.27838 -19.27791
 Alpha  occ. eigenvalues --  -19.27769 -19.27671 -19.27473 -19.22855 -19.21732
 Alpha  occ. eigenvalues --  -19.21703 -19.21569 -10.46493 -10.45643 -10.45465
 Alpha  occ. eigenvalues --  -10.45434 -10.34345 -10.34073 -10.33999 -10.33836
 Alpha  occ. eigenvalues --  -10.33566 -10.33117 -10.32990 -10.32971 -10.25991
 Alpha  occ. eigenvalues --  -10.25620 -10.25535 -10.25386  -1.26516  -1.25774
 Alpha  occ. eigenvalues --   -1.25583  -1.25505  -1.15120  -1.14496  -1.14461
 Alpha  occ. eigenvalues --   -1.14370  -1.14256  -1.13642  -1.13617  -1.13418
 Alpha  occ. eigenvalues --   -0.89555  -0.89444  -0.89214  -0.89186  -0.80481
 Alpha  occ. eigenvalues --   -0.80131  -0.79998  -0.79857  -0.77239  -0.76355
 Alpha  occ. eigenvalues --   -0.73436  -0.72783  -0.72664  -0.72467  -0.70166
 Alpha  occ. eigenvalues --   -0.69745  -0.69636  -0.69479  -0.63435  -0.63091
 Alpha  occ. eigenvalues --   -0.62691  -0.62479  -0.61342  -0.60289  -0.59933
 Alpha  occ. eigenvalues --   -0.59714  -0.58310  -0.57840  -0.57133  -0.57005
 Alpha  occ. eigenvalues --   -0.56812  -0.54805  -0.53964  -0.53675  -0.53399
 Alpha  occ. eigenvalues --   -0.52598  -0.52234  -0.52001  -0.51674  -0.51465
 Alpha  occ. eigenvalues --   -0.51262  -0.50658  -0.50165  -0.48979  -0.48298
 Alpha  occ. eigenvalues --   -0.48223  -0.48139  -0.47342  -0.47269  -0.46789
 Alpha  occ. eigenvalues --   -0.46654  -0.46192  -0.45931  -0.45453  -0.45319
 Alpha  occ. eigenvalues --   -0.43396  -0.43145  -0.42945  -0.42831  -0.41378
 Alpha  occ. eigenvalues --   -0.40878  -0.40236  -0.40023  -0.39783  -0.39532
 Alpha  occ. eigenvalues --   -0.39272  -0.39178  -0.39050  -0.38773  -0.38634
 Alpha  occ. eigenvalues --   -0.38216  -0.33730  -0.31953  -0.31428  -0.30881
 Alpha  occ. eigenvalues --   -0.30436  -0.28934
 Alpha virt. eigenvalues --    0.01492   0.02154   0.02642   0.05243   0.05794
 Alpha virt. eigenvalues --    0.06501   0.06692   0.06828   0.07400   0.07895
 Alpha virt. eigenvalues --    0.08589   0.08783   0.08928   0.09658   0.09775

 Mulliken charges:
               1
     1  Pb   1.034960
     2  Br  -0.638300
     3  Br  -0.655529
     4  O   -0.423196
     5  C    0.410137
     6  O   -0.219323
     7  O   -0.224115
     8  C    0.083476
     9  C    0.019523
    10  C   -0.298290
    11  H    0.126877
    12  H    0.102136
    13  H    0.095094
    14  H    0.117440
    15  H    0.120009
    16  H    0.131848
    17  O   -0.392854
    18  C    0.424581
    19  O   -0.240382
    20  O   -0.249716
    21  C    0.074784
    22  C    0.008655
    23  C   -0.297050
    24  H    0.142096
    25  H    0.108949
    26  H    0.111662
    27  H    0.120437
    28  H    0.123228
    29  H    0.139781
    30  O   -0.442519
    31  C    0.450534
    32  O   -0.220888
    33  O   -0.218052
    34  C    0.070488
    35  C   -0.004806
    36  C   -0.273410
    37  H    0.139403
    38  H    0.127228
    39  H    0.109938
    40  H    0.111930
    41  H    0.115495
    42  H    0.140678
    43  O   -0.412925
    44  C    0.415576
    45  O   -0.254642
    46  O   -0.221874
    47  C    0.072911
    48  C   -0.002171
    49  C   -0.300370
    50  H    0.138757
    51  H    0.112586
    52  H    0.113504
    53  H    0.114312
    54  H    0.119306
    55  H    0.142092
 Sum of Mulliken charges =  -0.00000

 Dipole moment (field-independent basis, Debye):
    X=             -4.6662    Y=             14.5795    Z=              9.5561  Tot=             18.0459
 Quadrupole moment (field-independent basis, Debye-Ang):
   XX=            -75.7054   YY=           -188.8019   ZZ=           -231.0439
   XY=              9.4544   XZ=             26.0353   YZ=            -12.6744

 Normal termination of Gaussian 16 at Sun Nov 22 03:22:40 2020.
