 Gaussian 16, Revision C.01,
 Gaussian 16:  ES64L-G16RevC.01  3-Jul-2019

 ----------------------------------------------------------------------
 # cam-b3lyp/gen pseudo=read TD=NStates=10 Geom=Check Guess=Read empiri
 caldispersion=gd3bj SCRF=(Solvent=Acetonitrile)
 ----------------------------------------------------------------------

 ---------
 PbCl2_acn
 ---------
 Structure from the checkpoint file:  "02-PbCl2_acn.chk"
 Charge =  0 Multiplicity = 1

                         Standard orientation:
 ---------------------------------------------------------------------
 Center     Atomic      Atomic             Coordinates (Angstroms)
 Number     Number       Type             X           Y           Z
 ---------------------------------------------------------------------
      1         82           0       -0.380353   -0.012978   -0.510621
      2         17           0       -0.862407   -1.922711    1.229911
      3         17           0       -1.007969    1.876032    1.214660
      4          6           0        1.960307    3.714389    0.048485
      5          1           0        2.998577    3.505221    0.370813
      6          1           0        1.883919    4.772035   -0.268895
      7          1           0        1.263809    3.530649    0.892542
      8          6           0        1.584997    2.830439   -1.040650
      9          7           0        1.256885    2.091818   -1.895064
     10          6           0        2.196384   -3.577002    0.042415
     11          1           0        3.215668   -3.296197    0.371086
     12          1           0        2.196767   -4.636123   -0.279141
     13          1           0        1.484198   -3.445359    0.883231
     14          6           0        1.765293   -2.716997   -1.045173
     15          7           0        1.390577   -1.998259   -1.897413
     16          6           0       -4.233343   -0.047275    1.367904
     17          1           0       -5.296479    0.257783    1.329865
     18          1           0       -4.146272   -1.037212    1.855328
     19          1           0       -3.650507    0.696147    1.948554
     20          6           0       -3.673141   -0.112522    0.031510
     21          7           0       -3.182103   -0.154629   -1.036886
     22          6           0        4.174520    0.060869    1.962665
     23          1           0        3.997699    0.102315    3.054603
     24          1           0        4.733484   -0.863363    1.718808
     25          1           0        4.773775    0.940078    1.656875
     26          6           0        2.906467    0.064442    1.259457
     27          7           0        1.883472    0.065884    0.689347
 ---------------------------------------------------------------------

 SCF Done:  E(RCAM-B3LYP) =  -1455.07473979     A.U. after   11 cycles

 Excitation energies and oscillator strengths:

 Excited State   1:      Singlet-A      6.3205 eV  196.16 nm  f=0.2024  <S**2>=0.000
      63 -> 64         0.59622
      63 -> 65         0.19609
      63 -> 66         0.27703
 This state for optimization and/or second-order correction.
 Total Energy, E(TD-HF/TD-DFT) =  -1454.84246707
 Copying the excited state density for this state as the 1-particle RhoCI density.

 Excited State   2:      Singlet-A      6.4029 eV  193.64 nm  f=0.2487  <S**2>=0.000
      62 -> 66        -0.20267
      63 -> 64        -0.23911
      63 -> 65         0.58665
      63 -> 66         0.14383

 Excited State   3:      Singlet-A      6.5135 eV  190.35 nm  f=0.1949  <S**2>=0.000
      63 -> 64        -0.19914
      63 -> 65        -0.22156
      63 -> 66         0.61057

 Excited State   4:      Singlet-A      6.7045 eV  184.93 nm  f=0.0047  <S**2>=0.000
      59 -> 66         0.13562
      62 -> 64         0.48198
      62 -> 65        -0.46398
      62 -> 77         0.10751

 Excited State   5:      Singlet-A      6.8403 eV  181.25 nm  f=0.0373  <S**2>=0.000
      60 -> 64        -0.16528
      60 -> 65         0.29343
      60 -> 66        -0.11817
      61 -> 64        -0.16252
      61 -> 65         0.38890
      61 -> 66        -0.35375
      62 -> 66         0.11235

 Excited State   6:      Singlet-A      6.8569 eV  180.82 nm  f=0.0511  <S**2>=0.000
      60 -> 64        -0.32036
      60 -> 65         0.14873
      60 -> 66         0.23928
      61 -> 64         0.42726
      61 -> 65        -0.17668
      61 -> 66        -0.23976

 Excited State   7:      Singlet-A      6.8682 eV  180.52 nm  f=0.0629  <S**2>=0.000
      61 -> 65         0.18310
      62 -> 64         0.44447
      62 -> 65         0.44837
      63 -> 65        -0.10903

 Excited State   8:      Singlet-A      6.8899 eV  179.95 nm  f=0.1038  <S**2>=0.000
      59 -> 64         0.11149
      59 -> 65        -0.11676
      61 -> 65        -0.21963
      62 -> 64         0.13419
      62 -> 65         0.12663
      62 -> 66         0.56631
      63 -> 65         0.13660

 Excited State   9:      Singlet-A      7.0574 eV  175.68 nm  f=0.0739  <S**2>=0.000
      58 -> 66         0.12708
      59 -> 65        -0.12211
      60 -> 64         0.14388
      61 -> 64         0.42433
      61 -> 65         0.31077
      61 -> 66         0.19821
      62 -> 66         0.16285

 Excited State  10:      Singlet-A      7.1218 eV  174.09 nm  f=0.0063  <S**2>=0.000
      60 -> 64         0.49157
      61 -> 64         0.11907
      61 -> 66        -0.44116

 The electronic state is 1-A.
 Alpha  occ. eigenvalues -- -101.56112-101.56070 -14.42837 -14.41206 -14.40819
 Alpha  occ. eigenvalues --  -14.40789 -10.33970 -10.32441 -10.31866 -10.31836
 Alpha  occ. eigenvalues --  -10.30225 -10.29256 -10.29167 -10.29151  -9.46909
 Alpha  occ. eigenvalues --   -9.46871  -7.22878  -7.22842  -7.22635  -7.22625
 Alpha  occ. eigenvalues --   -7.22595  -7.22587  -1.02188  -1.00674  -1.00153
 Alpha  occ. eigenvalues --   -1.00121  -0.86568  -0.85556  -0.85352  -0.85328
 Alpha  occ. eigenvalues --   -0.83704  -0.82693  -0.60821  -0.58568  -0.58356
 Alpha  occ. eigenvalues --   -0.58274  -0.57388  -0.53911  -0.53657  -0.53116
 Alpha  occ. eigenvalues --   -0.52758  -0.52620  -0.52559  -0.52374  -0.52349
 Alpha  occ. eigenvalues --   -0.49151  -0.46754  -0.46188  -0.45700  -0.43043
 Alpha  occ. eigenvalues --   -0.42965  -0.41517  -0.41453  -0.40999  -0.40526
 Alpha  occ. eigenvalues --   -0.40464  -0.40282  -0.36971  -0.35729  -0.34700
 Alpha  occ. eigenvalues --   -0.34304  -0.33619  -0.31776
 Alpha virt. eigenvalues --    0.01644   0.01836   0.02491   0.04624   0.05020
 Alpha virt. eigenvalues --    0.05686   0.06120   0.06167   0.06622   0.07482
 Alpha virt. eigenvalues --    0.07777   0.07964   0.09066   0.09153   0.10378

 Mulliken charges:
               1
     1  Pb   1.253734
     2  Cl  -0.707285
     3  Cl  -0.704703
     4  C   -0.246035
     5  H    0.146251
     6  H    0.151112
     7  H    0.142535
     8  C   -0.016109
     9  N   -0.157244
    10  C   -0.247303
    11  H    0.146080
    12  H    0.151856
    13  H    0.143181
    14  C   -0.015928
    15  N   -0.157328
    16  C   -0.235591
    17  H    0.151416
    18  H    0.142995
    19  H    0.140670
    20  C   -0.003848
    21  N   -0.174145
    22  C   -0.232377
    23  H    0.150548
    24  H    0.148874
    25  H    0.149170
    26  C    0.053747
    27  N   -0.174270
 Sum of Mulliken charges =  -0.00000

 Dipole moment (field-independent basis, Debye):
    X=             10.4867    Y=              0.3843    Z=              5.1917  Tot=             11.7078
 Quadrupole moment (field-independent basis, Debye-Ang):
   XX=            -55.4983   YY=            -95.7853   ZZ=           -125.7962
   XY=             -0.1508   XZ=             14.2205   YZ=              0.3401

 Normal termination of Gaussian 16 at Thu Apr 15 15:58:21 2021.
