 Gaussian 16, Revision C.01,
 Gaussian 16:  ES64L-G16RevC.01  3-Jul-2019

 ----------------------------------------------------------------------
 # cam-b3lyp/gen pseudo=read TD=NStates=10 Geom=Check Guess=Read empiri
 caldispersion=gd3bj SCRF=(Solvent=n,n-DiMethylFormamide)
 ----------------------------------------------------------------------

 ---------
 PbCl2_DMF
 ---------
 Structure from the checkpoint file:  "02-PbCl2_DMF.chk"
 Charge =  0 Multiplicity = 1

                         Standard orientation:
 ---------------------------------------------------------------------
 Center     Atomic      Atomic             Coordinates (Angstroms)
 Number     Number       Type             X           Y           Z
 ---------------------------------------------------------------------
      1         82           0        0.379425   -0.830646    0.063008
      2         17           0        2.115449   -1.943311   -1.621208
      3         17           0        0.704482   -2.671771    1.998238
      4          8           0        0.169542    1.391638   -1.637088
      5          6           0       -0.601569    2.371948   -1.648176
      6          1           0       -0.225540    3.423535   -1.585687
      7          7           0       -1.951289    2.311708   -1.742890
      8          6           0       -2.637900    1.033889   -1.847980
      9          6           0       -2.763710    3.517030   -1.729800
     10          1           0       -2.108123    4.404584   -1.658122
     11          1           0       -3.457647    3.512064   -0.863168
     12          1           0       -3.367825    3.589975   -2.657393
     13          1           0       -3.251857    0.843397   -0.943259
     14          1           0       -3.303539    1.031767   -2.734684
     15          1           0       -1.881812    0.236673   -1.948672
     16          8           0       -1.329446    0.931245    1.519729
     17          6           0       -1.747786    2.103687    1.585533
     18          1           0       -2.841327    2.340717    1.620062
     19          7           0       -0.980659    3.219887    1.624045
     20          6           0        0.472827    3.140972    1.614292
     21          6           0       -1.578926    4.540682    1.733756
     22          1           0       -2.681095    4.450735    1.741016
     23          1           0       -1.275695    5.176947    0.876407
     24          1           0       -1.253063    5.039992    2.669820
     25          1           0        0.880258    3.752326    0.782935
     26          1           0        0.884054    3.534997    2.567271
     27          1           0        0.784619    2.091631    1.481601
     28          8           0        2.305984    0.445148    1.067016
     29          6           0        3.539744    0.335258    0.853544
     30          1           0        4.210753   -0.187560    1.576681
     31          7           0        4.194304    0.822391   -0.214085
     32          6           0        3.497373    1.524403   -1.283817
     33          6           0        5.629354    0.632067   -0.364214
     34          1           0        6.029378    0.102114    0.519452
     35          1           0        6.138530    1.612485   -0.460974
     36          1           0        5.843049    0.033134   -1.273062
     37          1           0        3.902060    2.552799   -1.382415
     38          1           0        3.651708    0.986588   -2.240567
     39          1           0        2.416048    1.559329   -1.064344
     40          8           0       -1.504464   -2.237629   -1.089224
     41          6           0       -2.757557   -2.266834   -1.082020
     42          1           0       -3.338268   -2.409152   -2.026183
     43          7           0       -3.543658   -2.143352    0.004904
     44          6           0       -2.962354   -1.977841    1.334604
     45          6           0       -4.993205   -2.087322   -0.120239
     46          1           0       -5.278213   -2.221894   -1.179944
     47          1           0       -5.373626   -1.105393    0.229948
     48          1           0       -5.465905   -2.885284    0.487282
     49          1           0       -2.792554   -0.905179    1.567665
     50          1           0       -3.649718   -2.416942    2.081562
     51          1           0       -1.987874   -2.500352    1.380422
 ---------------------------------------------------------------------

 SCF Done:  E(RCAM-B3LYP) =  -1918.13443722     A.U. after   11 cycles

 Excitation energies and oscillator strengths:

 Excited State   1:      Singlet-A      5.6634 eV  218.92 nm  f=0.2266  <S**2>=0.000
      86 -> 103       -0.11824
      87 -> 100       -0.18547
      88 -> 103        0.11223
      89 -> 103        0.11279
      94 -> 100       -0.11682
      99 -> 100        0.55676
 This state for optimization and/or second-order correction.
 Total Energy, E(TD-HF/TD-DFT) =  -1917.92630951
 Copying the excited state density for this state as the 1-particle RhoCI density.

 Excited State   2:      Singlet-A      5.7905 eV  214.12 nm  f=0.0451  <S**2>=0.000
      88 -> 101        0.31904
      88 -> 102       -0.10794
      88 -> 103        0.18268
      88 -> 107       -0.12991
      89 -> 101       -0.12927
      90 -> 101        0.21056
      90 -> 102       -0.10506
      90 -> 103        0.12875
      91 -> 101        0.18215
      99 -> 101        0.31507

 Excited State   3:      Singlet-A      5.8058 eV  213.55 nm  f=0.0082  <S**2>=0.000
      89 -> 100        0.10757
      89 -> 101       -0.10718
      89 -> 102       -0.31942
      89 -> 103        0.12410
      89 -> 105        0.10892
      90 -> 101       -0.13953
      90 -> 102       -0.33026
      90 -> 105        0.11768
      91 -> 102        0.12602
      99 -> 102        0.25265

 Excited State   4:      Singlet-A      5.8773 eV  210.95 nm  f=0.0013  <S**2>=0.000
      86 -> 100       -0.24437
      87 -> 103       -0.29136
      88 -> 100        0.28680
      88 -> 101        0.11356
      88 -> 103       -0.10338
      89 -> 100        0.15721
      90 -> 100       -0.17138
      94 -> 103       -0.12237
      99 -> 103        0.22199

 Excited State   5:      Singlet-A      6.0603 eV  204.58 nm  f=0.1927  <S**2>=0.000
      86 -> 103        0.15487
      87 -> 100        0.29432
      88 -> 100        0.10167
      88 -> 103       -0.15363
      89 -> 103       -0.14008
      90 -> 103        0.12662
      95 -> 100        0.11032
      96 -> 103        0.10491
      97 -> 100        0.13606
      99 -> 100        0.32585
      99 -> 103       -0.11860
      99 -> 108       -0.10316

 Excited State   6:      Singlet-A      6.2908 eV  197.09 nm  f=0.6110  <S**2>=0.000
      88 -> 101       -0.11343
      94 -> 101        0.18270
      98 -> 101        0.11035
      98 -> 102       -0.16748
      98 -> 103        0.10082
      99 -> 101        0.47271
      99 -> 102        0.10845
      99 -> 104       -0.16941
      99 -> 107        0.16448

 Excited State   7:      Singlet-A      6.3708 eV  194.61 nm  f=0.2094  <S**2>=0.000
      94 -> 102        0.14141
      98 -> 101       -0.15340
      98 -> 102       -0.19139
      99 -> 101       -0.10365
      99 -> 102        0.43553
      99 -> 104       -0.10668
      99 -> 105        0.31825

 Excited State   8:      Singlet-A      6.5413 eV  189.54 nm  f=0.0517  <S**2>=0.000
      94 -> 101        0.10077
      95 -> 100       -0.28467
      96 -> 100        0.35990
      97 -> 101       -0.10130
      97 -> 102        0.10523
      97 -> 103        0.20280
      98 -> 101        0.11181
      99 -> 103        0.30278

 Excited State   9:      Singlet-A      6.6727 eV  185.81 nm  f=0.2471  <S**2>=0.000
      93 -> 100       -0.20201
      95 -> 100        0.18944
      95 -> 103       -0.13357
      96 -> 101       -0.11190
      96 -> 103        0.19177
      97 -> 100        0.43647
      98 -> 101        0.10491
      99 -> 100       -0.15984
      99 -> 103        0.14083

 Excited State  10:      Singlet-A      6.7636 eV  183.31 nm  f=0.4319  <S**2>=0.000
      94 -> 102       -0.16230
      96 -> 100       -0.12422
      98 -> 100       -0.18362
      98 -> 101        0.28806
      98 -> 102        0.28881
      99 -> 104       -0.10025
      99 -> 105        0.35768

 The electronic state is 1-A.
 Alpha  occ. eigenvalues -- -101.54910-101.54665 -19.19467 -19.19408 -19.19054
 Alpha  occ. eigenvalues --  -19.18849 -14.44924 -14.44746 -14.44611 -14.44386
 Alpha  occ. eigenvalues --  -10.37016 -10.36802 -10.36720 -10.36560 -10.29301
 Alpha  occ. eigenvalues --  -10.29175 -10.29121 -10.29075 -10.28614 -10.28037
 Alpha  occ. eigenvalues --  -10.27895 -10.27852  -9.45723  -9.45486  -7.21661
 Alpha  occ. eigenvalues --   -7.21460  -7.21457  -7.21408  -7.21229  -7.21226
 Alpha  occ. eigenvalues --   -1.13204  -1.13074  -1.12978  -1.12645  -1.03816
 Alpha  occ. eigenvalues --   -1.03677  -1.03643  -1.03414  -0.82327  -0.81735
 Alpha  occ. eigenvalues --   -0.81563  -0.81333  -0.81252  -0.81168  -0.79324
 Alpha  occ. eigenvalues --   -0.79151  -0.79115  -0.78915  -0.65574  -0.65342
 Alpha  occ. eigenvalues --   -0.65165  -0.64955  -0.60219  -0.59821  -0.59610
 Alpha  occ. eigenvalues --   -0.59437  -0.58998  -0.56662  -0.56617  -0.55942
 Alpha  occ. eigenvalues --   -0.55861  -0.55568  -0.55067  -0.54787  -0.51970
 Alpha  occ. eigenvalues --   -0.49807  -0.49686  -0.49486  -0.48636  -0.48127
 Alpha  occ. eigenvalues --   -0.48008  -0.47857  -0.47670  -0.47483  -0.47324
 Alpha  occ. eigenvalues --   -0.47149  -0.47003  -0.46651  -0.46334  -0.45821
 Alpha  occ. eigenvalues --   -0.45665  -0.45311  -0.45147  -0.44738  -0.44440
 Alpha  occ. eigenvalues --   -0.36980  -0.36122  -0.35614  -0.35585  -0.34966
 Alpha  occ. eigenvalues --   -0.34404  -0.33893  -0.33406  -0.33049  -0.32866
 Alpha  occ. eigenvalues --   -0.32730  -0.32392  -0.31943  -0.28958
 Alpha virt. eigenvalues --    0.02172   0.03324   0.03873   0.04316   0.05554
 Alpha virt. eigenvalues --    0.05662   0.06843   0.07277   0.07673   0.07865
 Alpha virt. eigenvalues --    0.09216   0.10233   0.10755   0.11166   0.11353

 Mulliken charges:
               1
     1  Pb   1.261911
     2  Cl  -0.747059
     3  Cl  -0.751829
     4  O   -0.453837
     5  C    0.153048
     6  H    0.112829
     7  N   -0.018707
     8  C   -0.217606
     9  C   -0.205829
    10  H    0.115658
    11  H    0.109837
    12  H    0.124185
    13  H    0.115568
    14  H    0.123573
    15  H    0.104400
    16  O   -0.449246
    17  C    0.143654
    18  H    0.108744
    19  N   -0.020865
    20  C   -0.230707
    21  C   -0.200772
    22  H    0.115366
    23  H    0.113977
    24  H    0.119814
    25  H    0.112447
    26  H    0.120238
    27  H    0.123345
    28  O   -0.508837
    29  C    0.173920
    30  H    0.109364
    31  N    0.008850
    32  C   -0.199809
    33  C   -0.166081
    34  H    0.108544
    35  H    0.107637
    36  H    0.108263
    37  H    0.114178
    38  H    0.109272
    39  H    0.106974
    40  O   -0.484639
    41  C    0.146565
    42  H    0.114602
    43  N    0.003998
    44  C   -0.251723
    45  C   -0.175761
    46  H    0.108580
    47  H    0.107632
    48  H    0.116354
    49  H    0.128440
    50  H    0.117995
    51  H    0.113546
 Sum of Mulliken charges =  -0.00000

 Dipole moment (field-independent basis, Debye):
    X=            -11.8407    Y=             20.6996    Z=             -1.7145  Tot=             23.9085
 Quadrupole moment (field-independent basis, Debye-Ang):
   XX=            -87.9787   YY=           -151.2375   ZZ=           -178.1287
   XY=             17.9426   XZ=              9.4875   YZ=              5.3979

 Normal termination of Gaussian 16 at Sat Apr 17 14:20:13 2021.
