 Gaussian 16, Revision C.01,
 Gaussian 16:  ES64L-G16RevC.01  3-Jul-2019

 ----------------------------------------------------------------------
 # cam-b3lyp/gen pseudo=read TD=NStates=10 Geom=Check Guess=Read empiri
 caldispersion=gd3bj SCRF=(Solvent=DMSO)
 ----------------------------------------------------------------------

 ----------
 PbCl2_dmso
 ----------
 Structure from the checkpoint file:  "02-PbCl2_dmso.chk"
 Charge =  0 Multiplicity = 1

                         Standard orientation:
 ---------------------------------------------------------------------
 Center     Atomic      Atomic             Coordinates (Angstroms)
 Number     Number       Type             X           Y           Z
 ---------------------------------------------------------------------
      1         82           0        0.128813   -0.327050   -0.300090
      2         17           0        1.173689    2.159149   -1.602778
      3         17           0        0.328328   -2.170480   -2.406492
      4          8           0       -0.619935    1.153892    1.661163
      5         16           0        0.253003    2.170700    2.493594
      6          6           0        0.105032    3.783147    1.640167
      7          6           0        1.993681    1.841645    2.036538
      8          1           0       -0.946550    4.106485    1.745253
      9          1           0        2.186320    0.777827    2.268787
     10          1           0        0.777836    4.499761    2.149687
     11          1           0        2.641241    2.509847    2.635896
     12          1           0        0.387115    3.634836    0.578509
     13          1           0        2.101613    2.021596    0.947613
     14          8           0       -1.061339   -1.861726    1.111924
     15         16           0       -2.449417   -1.368002    1.708860
     16          6           0       -3.677220   -2.403691    0.849336
     17          6           0       -2.479227   -2.186539    3.335885
     18          1           0       -3.671839   -2.029044   -0.190163
     19          1           0       -1.704948   -1.686190    3.945414
     20          1           0       -4.668191   -2.255000    1.319467
     21          1           0       -3.477681   -2.044568    3.791642
     22          1           0       -3.350490   -3.458963    0.904398
     23          1           0       -2.241657   -3.257826    3.197473
     24          8           0        2.279164   -1.197988    0.857742
     25         16           0        3.683379   -1.475402    0.192306
     26          6           0        4.818959   -0.214011    0.879044
     27          6           0        3.593432   -0.809956   -1.508277
     28          1           0        4.878370   -0.400252    1.966778
     29          1           0        2.858703   -1.440363   -2.048551
     30          1           0        5.812037   -0.355858    0.411308
     31          1           0        4.600488   -0.888765   -1.960803
     32          1           0        4.416506    0.794213    0.668233
     33          1           0        3.236451    0.239838   -1.466363
     34          8           0       -2.230727   -0.127539   -0.942545
     35         16           0       -2.965994    1.079456   -1.661188
     36          6           0       -2.065059    1.306282   -3.232459
     37          6           0       -2.391692    2.585914   -0.807933
     38          1           0       -2.217580    0.377276   -3.811151
     39          1           0       -2.662003    2.452129    0.254720
     40          1           0       -2.506709    2.171558   -3.762878
     41          1           0       -2.920578    3.451891   -1.249999
     42          1           0       -0.993435    1.472319   -2.997255
     43          1           0       -1.292233    2.660055   -0.930278
 ---------------------------------------------------------------------

 SCF Done:  E(RCAM-B3LYP) =  -3137.06663507     A.U. after   12 cycles

 Excitation energies and oscillator strengths:

 Excited State   1:      Singlet-A      5.3933 eV  229.89 nm  f=0.2065  <S**2>=0.000
     100 ->104        -0.12647
     103 ->104         0.63546
 This state for optimization and/or second-order correction.
 Total Energy, E(TD-HF/TD-DFT) =  -3136.86843570
 Copying the excited state density for this state as the 1-particle RhoCI density.

 Excited State   2:      Singlet-A      5.5917 eV  221.73 nm  f=0.1297  <S**2>=0.000
     102 ->105         0.17513
     102 ->106         0.16466
     103 ->105         0.59024

 Excited State   3:      Singlet-A      5.7238 eV  216.61 nm  f=0.1418  <S**2>=0.000
     101 ->104        -0.11336
     102 ->105         0.22582
     103 ->105        -0.16341
     103 ->106         0.51956

 Excited State   4:      Singlet-A      5.9016 eV  210.09 nm  f=0.0226  <S**2>=0.000
      95 ->104         0.15579
      98 ->104         0.10457
      99 ->104         0.13429
      99 ->108        -0.10808
     100 ->104        -0.16861
     100 ->105        -0.13538
     100 ->106         0.10669
     100 ->108         0.12831
     101 ->104         0.31408
     101 ->108        -0.11585
     103 ->104        -0.10382
     103 ->107         0.10787
     103 ->108        -0.21973

 Excited State   5:      Singlet-A      6.1362 eV  202.06 nm  f=0.0163  <S**2>=0.000
      95 ->108         0.14067
      96 ->105         0.16122
      96 ->106        -0.13421
      97 ->105        -0.12255
      99 ->104        -0.12976
     100 ->104         0.23856
     100 ->105        -0.11339
     100 ->106         0.13112
     101 ->105        -0.10225
     101 ->108         0.10553
     102 ->104         0.15898
     103 ->104         0.20084
     103 ->107         0.10959
     103 ->108        -0.19144
     103 ->110         0.11941

 Excited State   6:      Singlet-A      6.1970 eV  200.07 nm  f=0.0966  <S**2>=0.000
      94 ->105        -0.10801
      96 ->105         0.10542
      96 ->106         0.11129
     102 ->105        -0.27264
     102 ->106        -0.21632
     102 ->107         0.14090
     103 ->105         0.23073
     103 ->106         0.32079
     103 ->107         0.10713

 Excited State   7:      Singlet-A      6.3390 eV  195.59 nm  f=0.1199  <S**2>=0.000
      95 ->105        -0.16410
      95 ->106         0.13684
      96 ->104        -0.14423
      96 ->105        -0.11355
      96 ->108        -0.12668
      97 ->105         0.11037
     100 ->104         0.21623
     100 ->108         0.12927
     101 ->104         0.16986
     102 ->106         0.12229
     103 ->105        -0.15684
     103 ->106         0.22167
     103 ->111         0.13424
     103 ->116         0.13029

 Excited State   8:      Singlet-A      6.3891 eV  194.05 nm  f=0.0467  <S**2>=0.000
     102 ->105         0.13094
     102 ->106         0.12216
     102 ->107         0.19698
     102 ->108         0.10851
     102 ->110         0.15264
     102 ->112        -0.10947
     103 ->107         0.45733
     103 ->108         0.18279

 Excited State   9:      Singlet-A      6.4653 eV  191.77 nm  f=0.0423  <S**2>=0.000
      98 ->110         0.11543
      99 ->107        -0.10431
      99 ->110         0.10785
     100 ->104        -0.13896
     100 ->110        -0.17565
     101 ->107        -0.12614
     101 ->110         0.20220
     102 ->107         0.15099
     103 ->109         0.17085
     103 ->110         0.36825

 Excited State  10:      Singlet-A      6.5481 eV  189.34 nm  f=0.0066  <S**2>=0.000
      95 ->109        -0.13579
     100 ->109        -0.12176
     101 ->109        -0.13507
     102 ->107        -0.12899
     103 ->107         0.13711
     103 ->109         0.44716
     103 ->112         0.15616

 The electronic state is 1-A.
 Alpha  occ. eigenvalues -- -101.53381-101.53131 -89.08364 -89.07997 -89.07941
 Alpha  occ. eigenvalues --  -89.07876 -19.19033 -19.18564 -19.18129 -19.18119
 Alpha  occ. eigenvalues --  -10.28601 -10.28504 -10.28333 -10.28147 -10.28123
 Alpha  occ. eigenvalues --  -10.28116 -10.27847 -10.27820  -9.44219  -9.43944
 Alpha  occ. eigenvalues --   -8.12301  -8.11898  -8.11873  -8.11785  -7.20097
 Alpha  occ. eigenvalues --   -7.19987  -7.19979  -7.19786  -7.19734  -7.19727
 Alpha  occ. eigenvalues --   -6.08802  -6.08637  -6.08380  -6.08363  -6.08270
 Alpha  occ. eigenvalues --   -6.08254  -6.08220  -6.08137  -6.08093  -6.07698
 Alpha  occ. eigenvalues --   -6.07653  -6.07587  -1.09296  -1.08590  -1.08368
 Alpha  occ. eigenvalues --   -1.08283  -0.88695  -0.88404  -0.88210  -0.88151
 Alpha  occ. eigenvalues --   -0.80591  -0.80137  -0.80102  -0.79992  -0.79811
 Alpha  occ. eigenvalues --   -0.79552  -0.69800  -0.69314  -0.69142  -0.68566
 Alpha  occ. eigenvalues --   -0.57553  -0.54784  -0.54097  -0.53954  -0.53880
 Alpha  occ. eigenvalues --   -0.53579  -0.53305  -0.53196  -0.52750  -0.52558
 Alpha  occ. eigenvalues --   -0.52289  -0.52129  -0.51725  -0.49358  -0.49121
 Alpha  occ. eigenvalues --   -0.49067  -0.48824  -0.48428  -0.48120  -0.47614
 Alpha  occ. eigenvalues --   -0.45968  -0.45786  -0.45598  -0.45490  -0.44983
 Alpha  occ. eigenvalues --   -0.43906  -0.43299  -0.43047  -0.42007  -0.36642
 Alpha  occ. eigenvalues --   -0.36590  -0.36315  -0.35657  -0.34253  -0.33977
 Alpha  occ. eigenvalues --   -0.33310  -0.32770  -0.32299  -0.32229  -0.31883
 Alpha  occ. eigenvalues --   -0.31406  -0.31093  -0.26921
 Alpha virt. eigenvalues --    0.02951   0.03704   0.04409   0.05691   0.06255
 Alpha virt. eigenvalues --    0.06317   0.06602   0.07190   0.07620   0.08324
 Alpha virt. eigenvalues --    0.08713   0.09196   0.09643   0.10137   0.10371

 Mulliken charges:
               1
     1  Pb   1.269929
     2  Cl  -0.775522
     3  Cl  -0.800611
     4  O   -0.662148
     5  S    0.556617
     6  C   -0.308035
     7  C   -0.346457
     8  H    0.133622
     9  H    0.135793
    10  H    0.141129
    11  H    0.142372
    12  H    0.134932
    13  H    0.128472
    14  O   -0.692298
    15  S    0.585494
    16  C   -0.276998
    17  C   -0.274537
    18  H    0.134425
    19  H    0.131303
    20  H    0.126181
    21  H    0.125604
    22  H    0.120956
    23  H    0.121110
    24  O   -0.663920
    25  S    0.558213
    26  C   -0.301527
    27  C   -0.338715
    28  H    0.136751
    29  H    0.140240
    30  H    0.142433
    31  H    0.141836
    32  H    0.130995
    33  H    0.127502
    34  O   -0.677935
    35  S    0.560984
    36  C   -0.280950
    37  C   -0.293776
    38  H    0.130760
    39  H    0.130182
    40  H    0.130803
    41  H    0.140236
    42  H    0.121290
    43  H    0.113265
 Sum of Mulliken charges =  -0.00000

 Dipole moment (field-independent basis, Debye):
    X=             -3.5233    Y=              7.7749    Z=             12.4690  Tot=             15.1109
 Quadrupole moment (field-independent basis, Debye-Ang):
   XX=           -101.3639   YY=           -169.2610   ZZ=           -165.8350
   XY=             -1.3974   XZ=              7.4928   YZ=             -8.2912

 Normal termination of Gaussian 16 at Sat Apr 17 17:46:49 2021.
