 Gaussian 16, Revision C.01,
 Gaussian 16:  ES64L-G16RevC.01  3-Jul-2019

 ----------------------------------------------------------------------
 # cam-b3lyp/gen pseudo=read TD=NStates=10 Geom=Check Guess=Read empiri
 caldispersion=gd3bj SCRF=(read)
 ----------------------------------------------------------------------

 ---------
 PbCl2_gbl
 ---------
 Structure from the checkpoint file:  "02-PbCl2_gbl.chk"
 Charge =  0 Multiplicity = 1

                         Standard orientation:
 ---------------------------------------------------------------------
 Center     Atomic      Atomic             Coordinates (Angstroms)
 Number     Number       Type             X           Y           Z
 ---------------------------------------------------------------------
      1         82           0       -0.015517   -0.628885    0.154773
      2         17           0        1.412305    1.063766    1.688754
      3         17           0       -1.541329   -1.354178    2.192646
      4          8           0        1.427644    0.635938   -1.944035
      5          6           0        1.915333    1.745084   -1.735628
      6          6           0        1.223749    3.047995   -1.394859
      7          8           0        3.261663    1.922119   -1.765913
      8          6           0        2.297499    4.098307   -1.689697
      9          6           0        3.582186    3.308094   -1.418585
     10          1           0        4.448764    3.606257   -2.035215
     11          1           0        3.867999    3.320668   -0.346597
     12          1           0        2.224909    5.001700   -1.057247
     13          1           0        2.255674    4.409884   -2.752356
     14          1           0        0.994574    2.984822   -0.308282
     15          1           0        0.268467    3.152139   -1.937627
     16          8           0       -1.814446   -2.127465   -1.379290
     17          6           0       -3.038671   -2.060209   -1.294945
     18          6           0       -3.898199   -0.965758   -0.697454
     19          8           0       -3.814558   -3.069776   -1.764467
     20          6           0       -5.293472   -1.271593   -1.248745
     21          6           0       -5.221536   -2.785794   -1.476920
     22          1           0       -5.809207   -3.150101   -2.338484
     23          1           0       -5.497570   -3.366151   -0.572416
     24          1           0       -6.115482   -0.994923   -0.563910
     25          1           0       -5.450547   -0.747147   -2.211998
     26          1           0       -3.829150   -1.076105    0.407147
     27          1           0       -3.486191    0.027335   -0.951099
     28          8           0       -1.511950    1.406078   -0.382191
     29          6           0       -1.841977    2.326056    0.376641
     30          6           0       -1.946925    2.337953    1.880629
     31          8           0       -2.150078    3.531982   -0.140117
     32          6           0       -2.780471    3.592400    2.159153
     33          6           0       -2.448052    4.471648    0.949285
     34          1           0       -3.275141    5.114611    0.600375
     35          1           0       -1.538458    5.087222    1.101980
     36          1           0       -2.528892    4.090392    3.112754
     37          1           0       -3.860287    3.344974    2.167787
     38          1           0       -0.903607    2.408782    2.262398
     39          1           0       -2.354816    1.379077    2.249929
     40          8           0        1.774482   -2.404422    0.843088
     41          6           0        2.973156   -2.274923    0.574584
     42          6           0        3.674827   -1.165910   -0.176087
     43          8           0        3.855623   -3.207658    0.989977
     44          6           0        5.038179   -1.779311   -0.508453
     45          6           0        5.215519   -2.798126    0.621698
     46          1           0        5.761092   -3.715341    0.337579
     47          1           0        5.680037   -2.357404    1.527280
     48          1           0        5.861456   -1.042970   -0.536599
     49          1           0        4.998606   -2.296666   -1.487278
     50          1           0        3.741858   -0.300748    0.519312
     51          1           0        3.077782   -0.824551   -1.042722
 ---------------------------------------------------------------------

 SCF Done:  E(RCAM-B3LYP) =  -2149.64939438     A.U. after   12 cycles

 Excitation energies and oscillator strengths:

 Excited State   1:      Singlet-A      5.7505 eV  215.61 nm  f=0.0238  <S**2>=0.000
     105 ->113         0.25854
     105 ->114         0.22231
     105 ->116         0.10900
     105 ->118         0.12873
     106 ->113         0.26934
     106 ->114         0.18657
     106 ->115        -0.15386
     106 ->116         0.25459
     106 ->118         0.10133
     111 ->113         0.23136
     111 ->114         0.11080
 This state for optimization and/or second-order correction.
 Total Energy, E(TD-HF/TD-DFT) =  -2149.43806759
 Copying the excited state density for this state as the 1-particle RhoCI density.

 Excited State   2:      Singlet-A      5.7710 eV  214.84 nm  f=0.0347  <S**2>=0.000
     101 ->114        -0.12016
     103 ->112        -0.15564
     103 ->115        -0.10485
     104 ->114         0.10156
     104 ->115         0.13677
     104 ->116        -0.14145
     105 ->115        -0.14627
     105 ->116         0.12961
     106 ->113         0.15579
     106 ->114         0.11486
     106 ->115         0.13075
     111 ->112         0.36031
     111 ->114        -0.13973
     111 ->115        -0.12372
     111 ->116         0.13110

 Excited State   3:      Singlet-A      5.8089 eV  213.44 nm  f=0.0085  <S**2>=0.000
      99 ->114         0.12005
     101 ->113         0.10234
     101 ->114        -0.13078
     103 ->112        -0.15400
     103 ->114         0.11106
     103 ->115        -0.10137
     103 ->117         0.11647
     104 ->115        -0.15604
     105 ->116        -0.14364
     106 ->113        -0.12003
     106 ->114        -0.17958
     107 ->115        -0.10180
     111 ->112         0.19011
     111 ->113         0.19480
     111 ->114        -0.12552
     111 ->115         0.22280

 Excited State   4:      Singlet-A      5.8577 eV  211.66 nm  f=0.0099  <S**2>=0.000
      98 ->112         0.10400
      99 ->112         0.14840
     101 ->112        -0.24339
     101 ->115        -0.12081
     103 ->112        -0.22354
     103 ->113         0.17705
     103 ->114        -0.24711
     108 ->112         0.12602
     111 ->112         0.16020
     111 ->113        -0.16698
     111 ->114         0.23756

 Excited State   5:      Singlet-A      6.2221 eV  199.26 nm  f=0.2089  <S**2>=0.000
     101 ->114         0.10019
     103 ->112         0.18349
     111 ->112         0.44495
     111 ->113         0.13294
     111 ->115        -0.27579
     111 ->116        -0.26777

 Excited State   6:      Singlet-A      6.4107 eV  193.40 nm  f=0.2365  <S**2>=0.000
     110 ->112         0.10856
     110 ->113         0.13269
     111 ->112        -0.14887
     111 ->113         0.53309
     111 ->118        -0.14900

 Excited State   7:      Singlet-A      6.6128 eV  187.49 nm  f=0.1381  <S**2>=0.000
     109 ->112         0.13615
     110 ->112        -0.27876
     110 ->113        -0.16190
     111 ->113         0.12510
     111 ->114        -0.20574
     111 ->115         0.26089
     111 ->116         0.14340
     111 ->117         0.36436

 Excited State   8:      Singlet-A      6.7246 eV  184.37 nm  f=0.1188  <S**2>=0.000
     109 ->112         0.31455
     109 ->113         0.10461
     110 ->112         0.43232
     110 ->113         0.17384
     110 ->116        -0.11759
     111 ->112         0.11457
     111 ->115         0.18018
     111 ->117         0.12942

 Excited State   9:      Singlet-A      6.7836 eV  182.77 nm  f=0.0503  <S**2>=0.000
     109 ->112         0.38855
     109 ->113         0.20278
     109 ->117         0.15305
     110 ->112        -0.31307
     110 ->113         0.24501
     110 ->118        -0.12078
     111 ->115        -0.14509
     111 ->117        -0.13951

 Excited State  10:      Singlet-A      6.8169 eV  181.88 nm  f=0.0537  <S**2>=0.000
     107 ->113         0.13474
     108 ->112        -0.12618
     109 ->112        -0.19856
     110 ->112        -0.15976
     110 ->113         0.45200
     110 ->118        -0.14551
     111 ->112         0.14127
     111 ->114         0.17683
     111 ->115         0.19974
     111 ->116         0.10904

 The electronic state is 1-A.
 Alpha  occ. eigenvalues -- -101.54254-101.54119 -19.27832 -19.27306 -19.26860
 Alpha  occ. eigenvalues --  -19.26696 -19.23603 -19.23029 -19.22046 -19.22017
 Alpha  occ. eigenvalues --  -10.42018 -10.41544 -10.40848 -10.40774 -10.33099
 Alpha  occ. eigenvalues --  -10.32864 -10.32658 -10.32613 -10.28280 -10.28152
 Alpha  occ. eigenvalues --  -10.28052 -10.28009 -10.27968 -10.27851 -10.27744
 Alpha  occ. eigenvalues --  -10.27693  -9.45967  -9.45819  -7.21894  -7.21729
 Alpha  occ. eigenvalues --   -7.21616  -7.21594  -7.21477  -7.21458  -1.20570
 Alpha  occ. eigenvalues --   -1.20067  -1.19360  -1.19287  -1.12111  -1.11661
 Alpha  occ. eigenvalues --   -1.11029  -1.10963  -0.89462  -0.89234  -0.89011
 Alpha  occ. eigenvalues --   -0.88914  -0.82601  -0.81933  -0.81730  -0.81531
 Alpha  occ. eigenvalues --   -0.81197  -0.81171  -0.70921  -0.70679  -0.70294
 Alpha  occ. eigenvalues --   -0.70284  -0.64672  -0.64309  -0.63679  -0.63650
 Alpha  occ. eigenvalues --   -0.60139  -0.59651  -0.59408  -0.59029  -0.58900
 Alpha  occ. eigenvalues --   -0.58576  -0.57961  -0.57658  -0.55333  -0.54364
 Alpha  occ. eigenvalues --   -0.53601  -0.53407  -0.53235  -0.50963  -0.50429
 Alpha  occ. eigenvalues --   -0.50286  -0.50032  -0.49949  -0.49574  -0.49536
 Alpha  occ. eigenvalues --   -0.49126  -0.48578  -0.47767  -0.47471  -0.46565
 Alpha  occ. eigenvalues --   -0.44863  -0.44566  -0.44105  -0.43981  -0.43266
 Alpha  occ. eigenvalues --   -0.42931  -0.42718  -0.42621  -0.41577  -0.41259
 Alpha  occ. eigenvalues --   -0.41140  -0.40769  -0.38111  -0.37804  -0.37495
 Alpha  occ. eigenvalues --   -0.37122  -0.37092  -0.36313  -0.36141  -0.35380
 Alpha  occ. eigenvalues --   -0.34995  -0.34036  -0.33556  -0.32998  -0.32485
 Alpha  occ. eigenvalues --   -0.29959
 Alpha virt. eigenvalues --    0.02200   0.02687   0.03609   0.04156   0.05154
 Alpha virt. eigenvalues --    0.05744   0.07637   0.08887   0.10057   0.10472
 Alpha virt. eigenvalues --    0.11003   0.12494   0.12916   0.13366   0.13738

 Mulliken charges:
               1
     1  Pb   1.079007
     2  Cl  -0.671308
     3  Cl  -0.663399
     4  O   -0.305902
     5  C    0.219285
     6  C   -0.054929
     7  O   -0.249834
     8  C   -0.031861
     9  C    0.130747
    10  H    0.057661
    11  H    0.057976
    12  H    0.045111
    13  H    0.048912
    14  H    0.082408
    15  H    0.059259
    16  O   -0.298746
    17  C    0.211894
    18  C   -0.078993
    19  O   -0.246510
    20  C   -0.034751
    21  C    0.130698
    22  H    0.057740
    23  H    0.059184
    24  H    0.045832
    25  H    0.048211
    26  H    0.082006
    27  H    0.071640
    28  O   -0.340439
    29  C    0.243060
    30  C   -0.057128
    31  O   -0.235465
    32  C   -0.035793
    33  C    0.130084
    34  H    0.063206
    35  H    0.065250
    36  H    0.049421
    37  H    0.051763
    38  H    0.085733
    39  H    0.069966
    40  O   -0.320647
    41  C    0.233852
    42  C   -0.094779
    43  O   -0.236939
    44  C   -0.031640
    45  C    0.130019
    46  H    0.061099
    47  H    0.062632
    48  H    0.047879
    49  H    0.050275
    50  H    0.085158
    51  H    0.072093
 Sum of Mulliken charges =  -0.00000

 Dipole moment (field-independent basis, Debye):
    X=             -0.4978    Y=             10.6652    Z=             -5.8666  Tot=             12.1824
 Quadrupole moment (field-independent basis, Debye-Ang):
   XX=            -99.0760   YY=           -150.3818   ZZ=           -199.4736
   XY=             -9.5450   XZ=             -4.0381   YZ=             10.0717

 Normal termination of Gaussian 16 at Thu Apr 15 17:48:31 2021.
