 Gaussian 16, Revision C.01,
 Gaussian 16:  ES64L-G16RevC.01  3-Jul-2019

 ----------------------------------------------------------------------
 # cam-b3lyp/gen pseudo=read TD=NStates=10 Geom=Check Guess=Read empiri
 caldispersion=gd3bj SCRF=(read)
 ----------------------------------------------------------------------

 ---------
 PbCl2_nmp
 ---------
 Structure from the checkpoint file:  "02-PbCl2_nmp.chk"
 Charge =  0 Multiplicity = 1

                         Standard orientation:
 ---------------------------------------------------------------------
 Center     Atomic      Atomic             Coordinates (Angstroms)
 Number     Number       Type             X           Y           Z
 ---------------------------------------------------------------------
      1         82           0        0.433485   -1.130691    0.363711
      2         17           0        1.659281   -3.256292    1.542295
      3         17           0        1.210159   -1.694341   -2.206782
      4          8           0       -0.320632    0.292285    2.535595
      5          6           0       -1.115155    1.245310    2.370047
      6          6           0       -2.629519    1.163941    2.267328
      7          7           0       -0.746192    2.545097    2.202014
      8          6           0       -3.097427    2.620827    2.405320
      9          6           0       -1.870086    3.452451    1.976460
     10          6           0        0.630941    2.981072    2.101451
     11          1           0        1.276420    2.086742    2.026572
     12          1           0        0.765528    3.602438    1.191732
     13          1           0        0.924238    3.591494    2.981327
     14          1           0       -2.843442    0.737455    1.263844
     15          1           0       -3.041614    0.472906    3.025443
     16          1           0       -3.987639    2.857092    1.794012
     17          1           0       -3.343457    2.841245    3.462611
     18          1           0       -1.745864    4.379989    2.571026
     19          1           0       -1.903899    3.740831    0.901609
     20          8           0       -1.389637    0.620355   -0.712698
     21          6           0       -1.011809    1.674537   -1.274490
     22          6           0        0.405281    2.039691   -1.678851
     23          7           0       -1.843202    2.685614   -1.651009
     24          6           0        0.321776    3.532518   -2.028585
     25          6           0       -1.159957    3.745857   -2.395071
     26          6           0       -3.287029    2.607633   -1.569196
     27          1           0       -3.551082    1.719751   -0.966396
     28          1           0       -3.736466    2.508948   -2.580322
     29          1           0       -3.698888    3.518230   -1.089236
     30          1           0        0.672124    1.401070   -2.548359
     31          1           0        1.119171    1.786809   -0.871560
     32          1           0        0.999192    3.832651   -2.848204
     33          1           0        0.573772    4.144629   -1.139149
     34          1           0       -1.547322    4.738772   -2.091698
     35          1           0       -1.349171    3.623883   -3.485598
     36          8           0        2.467992    0.518178    0.521289
     37          6           0        3.621943    0.306780    0.065033
     38          6           0        4.257307   -1.036083   -0.236021
     39          7           0        4.494861    1.287558   -0.274608
     40          6           0        5.742751   -0.703388   -0.440479
     41          6           0        5.732241    0.776700   -0.869354
     42          6           0        4.169574    2.698552   -0.259456
     43          1           0        3.199980    2.825615    0.254392
     44          1           0        4.090553    3.096885   -1.293350
     45          1           0        4.952422    3.269449    0.278987
     46          1           0        3.761083   -1.418545   -1.155731
     47          1           0        4.037999   -1.763939    0.567758
     48          1           0        6.240028   -1.346959   -1.188394
     49          1           0        6.288916   -0.806596    0.518058
     50          1           0        6.603790    1.349159   -0.494257
     51          1           0        5.694503    0.899187   -1.975418
     52          8           0       -1.796318   -2.350506    0.362423
     53          6           0       -2.675811   -2.081695   -0.496408
     54          6           0       -2.516884   -2.079956   -2.004703
     55          7           0       -3.965691   -1.786799   -0.196465
     56          6           0       -3.774234   -1.354244   -2.502787
     57          6           0       -4.804160   -1.589534   -1.380441
     58          6           0       -4.513196   -1.840621    1.142639
     59          1           0       -3.678061   -2.012074    1.845415
     60          1           0       -5.248674   -2.667556    1.233633
     61          1           0       -5.021856   -0.887957    1.393113
     62          1           0       -2.484646   -3.142478   -2.331370
     63          1           0       -1.555210   -1.617100   -2.293554
     64          1           0       -4.137587   -1.715820   -3.481518
     65          1           0       -3.563502   -0.270611   -2.588479
     66          1           0       -5.486415   -0.729610   -1.225412
     67          1           0       -5.430104   -2.493404   -1.556523
 ---------------------------------------------------------------------

 SCF Done:  E(RCAM-B3LYP) =  -2227.81823067     A.U. after   12 cycles

 Excitation energies and oscillator strengths:

 Excited State   1:      Singlet-A      5.7894 eV  214.16 nm  f=0.1726  <S**2>=0.000
     115 -> 129       -0.10593
     115 -> 130        0.10266
     117 -> 128        0.16356
     127 -> 128        0.52574
     127 -> 129       -0.20865
 This state for optimization and/or second-order correction.
 Total Energy, E(TD-HF/TD-DFT) =  -2227.60547421
 Copying the excited state density for this state as the 1-particle RhoCI density.

 Excited State   2:      Singlet-A      5.8235 eV  212.90 nm  f=0.1046  <S**2>=0.000
     114 -> 129        0.12253
     114 -> 130       -0.11390
     114 -> 131       -0.15812
     116 -> 129        0.12771
     116 -> 131       -0.17607
     119 -> 129        0.11227
     119 -> 131       -0.15125
     123 -> 131        0.10815
     127 -> 128        0.21320
     127 -> 129        0.32789
     127 -> 130       -0.17389
     127 -> 131       -0.20091

 Excited State   3:      Singlet-A      5.9206 eV  209.41 nm  f=0.0240  <S**2>=0.000
     117 -> 130       -0.12290
     118 -> 128        0.22917
     118 -> 129        0.28142
     118 -> 130        0.30248
     118 -> 131        0.17433
     118 -> 135       -0.12504
     118 -> 137        0.17570
     127 -> 130       -0.18993

 Excited State   4:      Singlet-A      5.9433 eV  208.61 nm  f=0.1357  <S**2>=0.000
     115 -> 128        0.18445
     117 -> 129       -0.12044
     117 -> 130        0.15128
     117 -> 131       -0.10748
     118 -> 128        0.11505
     118 -> 130        0.18491
     127 -> 130        0.37314
     127 -> 131       -0.21007

 Excited State   5:      Singlet-A      6.0253 eV  205.77 nm  f=0.2701  <S**2>=0.000
     115 -> 128       -0.12421
     127 -> 128        0.19670
     127 -> 129        0.40294
     127 -> 130        0.28632
     127 -> 131        0.13976
     127 -> 133       -0.14875

 Excited State   6:      Singlet-A      6.1840 eV  200.49 nm  f=0.1536  <S**2>=0.000
     115 -> 129        0.10335
     115 -> 130       -0.17962
     117 -> 128       -0.29837
     117 -> 130        0.20397
     117 -> 136        0.13932
     121 -> 130       -0.11450
     126 -> 128       -0.10909
     127 -> 128        0.23357
     127 -> 134       -0.14213
     127 -> 136        0.16373
     127 -> 137        0.10593

 Excited State   7:      Singlet-A      6.3634 eV  194.84 nm  f=0.5248  <S**2>=0.000
     115 -> 128        0.13642
     117 -> 130        0.11845
     121 -> 128        0.10819
     127 -> 129        0.27444
     127 -> 130       -0.21573
     127 -> 131        0.26752
     127 -> 134        0.31096
     127 -> 136        0.15322

 Excited State   8:      Singlet-A      6.6416 eV  186.68 nm  f=0.0713  <S**2>=0.000
     123 -> 131        0.13286
     124 -> 131        0.14009
     125 -> 128        0.20719
     125 -> 130       -0.13650
     126 -> 128        0.28004
     126 -> 129       -0.27011
     126 -> 130        0.15468
     126 -> 132       -0.10041
     126 -> 134        0.13416
     127 -> 130       -0.10747
     127 -> 134       -0.11017

 Excited State   9:      Singlet-A      6.6614 eV  186.12 nm  f=0.0561  <S**2>=0.000
     123 -> 130        0.19278
     123 -> 131        0.11822
     124 -> 128       -0.12742
     124 -> 129       -0.21997
     125 -> 128       -0.11400
     125 -> 130       -0.10330
     125 -> 131       -0.12940
     127 -> 130        0.10249
     127 -> 131        0.34644
     127 -> 133        0.12431
     127 -> 135       -0.13433
     127 -> 137        0.16042

 Excited State  10:      Singlet-A      6.7355 eV  184.07 nm  f=0.3606  <S**2>=0.000
     123 -> 128       -0.22102
     123 -> 130        0.13405
     123 -> 131       -0.12523
     125 -> 128       -0.14607
     125 -> 129       -0.14662
     125 -> 130        0.26018
     126 -> 128        0.27587
     126 -> 129       -0.11704
     126 -> 131       -0.14871
     126 -> 132       -0.10598
     127 -> 134       -0.10201
     127 -> 136        0.13574

 The electronic state is 1-A.
 Alpha  occ. eigenvalues -- -101.54254-101.54190 -19.18923 -19.18854 -19.18778
 Alpha  occ. eigenvalues --  -19.18025 -14.43670 -14.43657 -14.43572 -14.43200
 Alpha  occ. eigenvalues --  -10.36651 -10.36647 -10.36613 -10.36103 -10.29419
 Alpha  occ. eigenvalues --  -10.29277 -10.29253 -10.29175 -10.28679 -10.28526
 Alpha  occ. eigenvalues --  -10.28365 -10.28023 -10.26257 -10.26097 -10.26042
 Alpha  occ. eigenvalues --  -10.25983 -10.25910 -10.25894 -10.25849 -10.25803
 Alpha  occ. eigenvalues --   -9.45061  -9.45007  -7.20971  -7.20913  -7.20813
 Alpha  occ. eigenvalues --   -7.20811  -7.20762  -7.20757  -1.13039  -1.12893
 Alpha  occ. eigenvalues --   -1.12758  -1.12254  -1.04047  -1.04016  -1.03955
 Alpha  occ. eigenvalues --   -1.03560  -0.89020  -0.88774  -0.88746  -0.88524
 Alpha  occ. eigenvalues --   -0.81546  -0.80913  -0.80400  -0.80287  -0.80205
 Alpha  occ. eigenvalues --   -0.80077  -0.78186  -0.77920  -0.77858  -0.77582
 Alpha  occ. eigenvalues --   -0.69370  -0.69158  -0.69051  -0.68958  -0.62077
 Alpha  occ. eigenvalues --   -0.61772  -0.61635  -0.61393  -0.59446  -0.58781
 Alpha  occ. eigenvalues --   -0.58333  -0.58169  -0.57752  -0.57521  -0.57174
 Alpha  occ. eigenvalues --   -0.56865  -0.54840  -0.53945  -0.53652  -0.53130
 Alpha  occ. eigenvalues --   -0.52703  -0.51434  -0.51002  -0.50852  -0.50584
 Alpha  occ. eigenvalues --   -0.49649  -0.49402  -0.48975  -0.48749  -0.48339
 Alpha  occ. eigenvalues --   -0.48127  -0.47698  -0.47510  -0.47318  -0.47166
 Alpha  occ. eigenvalues --   -0.46954  -0.45851  -0.45651  -0.45239  -0.45089
 Alpha  occ. eigenvalues --   -0.44999  -0.44832  -0.44652  -0.44522  -0.43984
 Alpha  occ. eigenvalues --   -0.42539  -0.42440  -0.42344  -0.42145  -0.40517
 Alpha  occ. eigenvalues --   -0.40224  -0.40140  -0.39784  -0.36247  -0.35468
 Alpha  occ. eigenvalues --   -0.34827  -0.34450  -0.33762  -0.33453  -0.32995
 Alpha  occ. eigenvalues --   -0.32957  -0.32503  -0.32211  -0.31999  -0.31705
 Alpha  occ. eigenvalues --   -0.31655  -0.27933
 Alpha virt. eigenvalues --    0.03472   0.03977   0.04277   0.04881   0.05478
 Alpha virt. eigenvalues --    0.06128   0.06686   0.07120   0.07392   0.07822
 Alpha virt. eigenvalues --    0.08346   0.08458   0.09510   0.09638   0.10098

 Mulliken charges:
               1
     1  Pb   1.248314
     2  Cl  -0.767476
     3  Cl  -0.751768
     4  O   -0.476133
     5  C    0.201373
     6  C   -0.179355
     7  N   -0.012776
     8  C   -0.198729
     9  C   -0.112253
    10  C   -0.233011
    11  H    0.119852
    12  H    0.108635
    13  H    0.121145
    14  H    0.116848
    15  H    0.125128
    16  H    0.115900
    17  H    0.114271
    18  H    0.116792
    19  H    0.107085
    20  O   -0.485961
    21  C    0.238188
    22  C   -0.182060
    23  N   -0.035537
    24  C   -0.200134
    25  C   -0.095127
    26  C   -0.256369
    27  H    0.134261
    28  H    0.127688
    29  H    0.128249
    30  H    0.127774
    31  H    0.102421
    32  H    0.121164
    33  H    0.116358
    34  H    0.115823
    35  H    0.112880
    36  O   -0.503639
    37  C    0.272967
    38  C   -0.204886
    39  N   -0.032350
    40  C   -0.188739
    41  C   -0.079842
    42  C   -0.219380
    43  H    0.125481
    44  H    0.113927
    45  H    0.118255
    46  H    0.125408
    47  H    0.126984
    48  H    0.113193
    49  H    0.109406
    50  H    0.110069
    51  H    0.103527
    52  O   -0.516924
    53  C    0.262501
    54  C   -0.179525
    55  N   -0.025415
    56  C   -0.200086
    57  C   -0.097704
    58  C   -0.235469
    59  H    0.124080
    60  H    0.120772
    61  H    0.120485
    62  H    0.125549
    63  H    0.119070
    64  H    0.116428
    65  H    0.117589
    66  H    0.112318
    67  H    0.112490
 Sum of Mulliken charges =  -0.00000

 Dipole moment (field-independent basis, Debye):
    X=             -9.5412    Y=             22.4288    Z=             -4.8619  Tot=             24.8540
 Quadrupole moment (field-independent basis, Debye-Ang):
   XX=           -131.7183   YY=           -211.4781   ZZ=           -220.2311
   XY=             24.7864   XZ=             -1.9206   YZ=              6.0993

 Normal termination of Gaussian 16 at Mon Apr 19 18:10:34 2021.
