 Gaussian 16, Revision C.01,
 Gaussian 16:  ES64L-G16RevC.01  3-Jul-2019

 ----------------------------------------------------------------------
 # cam-b3lyp/gen pseudo=read TD=NStates=10 Geom=Check Guess=Read empiri
 caldispersion=gd3bj SCRF=(read)
 ----------------------------------------------------------------------

 --------
 PbCl2_PC
 --------
 Structure from the checkpoint file:  "02-PbCl2_PC.chk"
 Charge =  0 Multiplicity = 1

                         Standard orientation:
 ---------------------------------------------------------------------
 Center     Atomic      Atomic             Coordinates (Angstroms)
 Number     Number       Type             X           Y           Z
 ---------------------------------------------------------------------
      1         82           0       -0.178646   -0.190168   -0.254766
      2         17           0       -1.793874    0.146646    1.804432
      3         17           0        0.387918   -2.641329    0.558700
      4          8           0       -0.190959    2.676750    0.037066
      5          6           0       -1.309077    3.107423   -0.196196
      6          8           0       -2.189164    2.510404   -1.033597
      7          8           0       -1.810043    4.239007    0.350234
      8          6           0       -3.493332    3.174700   -0.902221
      9          6           0       -3.093967    4.519441   -0.269604
     10          6           0       -4.418362    2.322848   -0.054098
     11          1           0       -2.950505    5.325127   -1.015643
     12          1           0       -3.791199    4.852001    0.520028
     13          1           0       -4.012772    2.207716    0.970856
     14          1           0       -4.538881    1.315233   -0.494078
     15          1           0       -5.413242    2.807810    0.003440
     16          1           0       -3.878634    3.302558   -1.930503
     17          8           0        2.139870   -0.827603   -1.936458
     18          6           0        3.063908   -1.429332   -1.416895
     19          8           0        3.941982   -0.870985   -0.542872
     20          8           0        3.346259   -2.731586   -1.649761
     21          6           0        4.754137   -1.935452    0.059431
     22          6           0        4.572185   -3.078270   -0.954686
     23          6           0        4.240519   -2.230202    1.456840
     24          1           0        5.390589   -3.132394   -1.698717
     25          1           0        4.428563   -4.063464   -0.475642
     26          1           0        3.195638   -2.599763    1.417779
     27          1           0        4.271563   -1.314732    2.078043
     28          1           0        4.880759   -3.000492    1.930963
     29          1           0        5.794206   -1.560584    0.073508
     30          8           0       -2.398445   -1.086388   -1.502723
     31          6           0       -3.250660   -1.699202   -0.870081
     32          8           0       -3.101358   -2.958199   -0.419920
     33          8           0       -4.459012   -1.178849   -0.559214
     34          6           0       -4.220007   -3.276716    0.479541
     35          6           0       -5.256144   -2.206948    0.088870
     36          6           0       -3.738870   -3.206136    1.916578
     37          1           0       -6.006229   -2.571521   -0.638953
     38          1           0       -5.759615   -1.750697    0.959934
     39          1           0       -3.395153   -2.180616    2.161886
     40          1           0       -2.898434   -3.908264    2.076512
     41          1           0       -4.566655   -3.487171    2.597624
     42          1           0       -4.555889   -4.293339    0.204707
     43          8           0        1.662505    0.406536    1.339737
     44          6           0        2.580236    1.142548    0.975448
     45          8           0        2.615749    1.776869   -0.201496
     46          8           0        3.657300    1.386254    1.743376
     47          6           0        3.766913    2.689985   -0.215927
     48          6           0        4.612237    2.150398    0.952105
     49          6           0        3.270794    4.113492   -0.051402
     50          1           0        5.411580    1.459434    0.624435
     51          1           0        5.029057    2.945263    1.595434
     52          1           0        2.781388    4.249398    0.933560
     53          1           0        2.542243    4.362159   -0.845807
     54          1           0        4.125114    4.815028   -0.123271
     55          1           0        4.266168    2.535536   -1.189709
 ---------------------------------------------------------------------

 SCF Done:  E(RCAM-B3LYP) =  -2451.03817895     A.U. after   12 cycles

 Excitation energies and oscillator strengths:

 Excited State   1:      Singlet-A      6.4139 eV  193.31 nm  f=0.1791  <S**2>=0.000
     127 -> 128        0.59102
     127 -> 129        0.34140
 This state for optimization and/or second-order correction.
 Total Energy, E(TD-HF/TD-DFT) =  -2450.80247357
 Copying the excited state density for this state as the 1-particle RhoCI density.

 Excited State   2:      Singlet-A      6.5689 eV  188.74 nm  f=0.2619  <S**2>=0.000
     126 -> 129       -0.16307
     126 -> 130        0.11706
     127 -> 128       -0.31461
     127 -> 129        0.55837

 Excited State   3:      Singlet-A      6.7136 eV  184.68 nm  f=0.2140  <S**2>=0.000
     126 -> 129       -0.22251
     126 -> 130        0.12084
     127 -> 129       -0.13902
     127 -> 130        0.59640

 Excited State   4:      Singlet-A      6.9031 eV  179.61 nm  f=0.1407  <S**2>=0.000
     123 -> 129        0.14605
     125 -> 128       -0.17849
     125 -> 129       -0.10976
     126 -> 129        0.52025
     127 -> 130        0.18032

 Excited State   5:      Singlet-A      6.9521 eV  178.34 nm  f=0.0021  <S**2>=0.000
     126 -> 128        0.63237
     126 -> 130       -0.14928

 Excited State   6:      Singlet-A      6.9921 eV  177.32 nm  f=0.0003  <S**2>=0.000
     113 -> 133       -0.12134
     121 -> 129       -0.10709
     121 -> 133        0.11504
     124 -> 129       -0.18847
     125 -> 128       -0.11068
     125 -> 129        0.26747
     125 -> 130       -0.13979
     126 -> 128        0.16193
     126 -> 130        0.12381
     127 -> 133       -0.16803

 Excited State   7:      Singlet-A      7.0000 eV  177.12 nm  f=0.0022  <S**2>=0.000
     113 -> 133        0.18120
     124 -> 129       -0.14434
     125 -> 129        0.35711
     125 -> 130       -0.25194
     126 -> 130        0.10448
     127 -> 133        0.18301

 Excited State   8:      Singlet-A      7.0136 eV  176.78 nm  f=0.0091  <S**2>=0.000
     112 -> 128       -0.11962
     112 -> 134        0.10608
     114 -> 128       -0.14775
     121 -> 129       -0.10540
     124 -> 129        0.13761
     125 -> 128        0.22062
     125 -> 129       -0.15362
     125 -> 130        0.11714
     126 -> 128        0.13286
     127 -> 131        0.20829

 Excited State   9:      Singlet-A      7.0371 eV  176.19 nm  f=0.0036  <S**2>=0.000
     110 -> 131       -0.10313
     113 -> 133       -0.13194
     117 -> 128       -0.11143
     125 -> 128        0.11879
     126 -> 129        0.23421
     126 -> 130        0.32760
     127 -> 131       -0.18766

 Excited State  10:      Singlet-A      7.0556 eV  175.72 nm  f=0.0474  <S**2>=0.000
     110 -> 131        0.11632
     112 -> 128        0.12610
     112 -> 134       -0.10214
     114 -> 128        0.13298
     114 -> 134       -0.10081
     117 -> 128        0.12278
     123 -> 130       -0.10467
     124 -> 129        0.16970
     125 -> 129       -0.12926
     126 -> 130        0.38355
     127 -> 130       -0.11615
     127 -> 131        0.15174

 The electronic state is 1-A.
 Alpha  occ. eigenvalues -- -101.55532-101.55284 -19.28279 -19.27835 -19.27816
 Alpha  occ. eigenvalues --  -19.27497 -19.27486 -19.27391 -19.27287 -19.27254
 Alpha  occ. eigenvalues --  -19.22570 -19.21555 -19.21065 -19.20950 -10.46058
 Alpha  occ. eigenvalues --  -10.45441 -10.44892 -10.44851 -10.34173 -10.33823
 Alpha  occ. eigenvalues --  -10.33696 -10.33686 -10.33390 -10.33099 -10.32952
 Alpha  occ. eigenvalues --  -10.32909 -10.25684 -10.25167 -10.25121 -10.25026
 Alpha  occ. eigenvalues --   -9.46334  -9.46090  -7.22299  -7.22063  -7.22050
 Alpha  occ. eigenvalues --   -7.22048  -7.21820  -7.21812  -1.26263  -1.25520
 Alpha  occ. eigenvalues --   -1.25128  -1.24998  -1.14850  -1.14214  -1.14198
 Alpha  occ. eigenvalues --   -1.13903  -1.13805  -1.13483  -1.13095  -1.13087
 Alpha  occ. eigenvalues --   -0.89367  -0.88950  -0.88746  -0.88741  -0.83108
 Alpha  occ. eigenvalues --   -0.82011  -0.80342  -0.79891  -0.79716  -0.79695
 Alpha  occ. eigenvalues --   -0.73329  -0.72802  -0.72604  -0.72573  -0.69900
 Alpha  occ. eigenvalues --   -0.69377  -0.69167  -0.69025  -0.62568  -0.62047
 Alpha  occ. eigenvalues --   -0.61498  -0.61480  -0.61128  -0.59800  -0.59418
 Alpha  occ. eigenvalues --   -0.59229  -0.58182  -0.57514  -0.57468  -0.57296
 Alpha  occ. eigenvalues --   -0.56923  -0.54808  -0.54002  -0.53807  -0.53183
 Alpha  occ. eigenvalues --   -0.52973  -0.52560  -0.52345  -0.50578  -0.49961
 Alpha  occ. eigenvalues --   -0.49900  -0.49788  -0.49657  -0.48930  -0.48699
 Alpha  occ. eigenvalues --   -0.48204  -0.47982  -0.47092  -0.46827  -0.46463
 Alpha  occ. eigenvalues --   -0.46310  -0.46007  -0.45833  -0.45559  -0.45516
 Alpha  occ. eigenvalues --   -0.43105  -0.42892  -0.42626  -0.42287  -0.41230
 Alpha  occ. eigenvalues --   -0.40427  -0.39976  -0.39514  -0.39509  -0.39202
 Alpha  occ. eigenvalues --   -0.39111  -0.38878  -0.38651  -0.38545  -0.38466
 Alpha  occ. eigenvalues --   -0.38248  -0.36134  -0.34993  -0.34257  -0.33554
 Alpha  occ. eigenvalues --   -0.32826  -0.31007
 Alpha virt. eigenvalues --    0.02971   0.03434   0.03996   0.05420   0.06190
 Alpha virt. eigenvalues --    0.06287   0.06921   0.07310   0.07726   0.08332
 Alpha virt. eigenvalues --    0.08790   0.09455   0.09891   0.10110   0.10460

 Mulliken charges:
               1
     1  Pb   1.238066
     2  Cl  -0.723567
     3  Cl  -0.729167
     4  O   -0.377800
     5  C    0.389232
     6  O   -0.248661
     7  O   -0.231740
     8  C    0.069457
     9  C    0.012532
    10  C   -0.286725
    11  H    0.123986
    12  H    0.118454
    13  H    0.105017
    14  H    0.111541
    15  H    0.113146
    16  H    0.134080
    17  O   -0.386202
    18  C    0.392591
    19  O   -0.259035
    20  O   -0.230019
    21  C    0.069078
    22  C    0.013816
    23  C   -0.293278
    24  H    0.123235
    25  H    0.116825
    26  H    0.111296
    27  H    0.109003
    28  H    0.117904
    29  H    0.135683
    30  O   -0.417540
    31  C    0.410309
    32  O   -0.224662
    33  O   -0.221876
    34  C    0.067219
    35  C    0.013125
    36  C   -0.281286
    37  H    0.124925
    38  H    0.117292
    39  H    0.112537
    40  H    0.109076
    41  H    0.112026
    42  H    0.136463
    43  O   -0.443692
    44  C    0.473410
    45  O   -0.220240
    46  O   -0.229771
    47  C    0.065650
    48  C   -0.007267
    49  C   -0.274623
    50  H    0.130205
    51  H    0.136098
    52  H    0.106583
    53  H    0.114029
    54  H    0.117572
    55  H    0.135688
 Sum of Mulliken charges =  -0.00000

 Dipole moment (field-independent basis, Debye):
    X=              3.1851    Y=              7.1872    Z=             -3.9195  Tot=              8.7843
 Quadrupole moment (field-independent basis, Debye-Ang):
   XX=            -64.9071   YY=           -159.7080   ZZ=           -221.9214
   XY=              4.6219   XZ=              4.3823   YZ=            -10.4768

 Normal termination of Gaussian 16 at Fri Apr 16 21:55:02 2021.
