 Gaussian 16, Revision C.01,
 Gaussian 16:  ES64L-G16RevC.01  3-Jul-2019

 ----------------------------------------------------------------------
 # cam-b3lyp/gen pseudo=read TD=NStates=10 Geom=Check Guess=Read empiri
 caldispersion=gd3bj SCRF=(Solvent=CH3CN)
 ----------------------------------------------------------------------

 --------
 PbI2_ACN
 --------
 Structure from the checkpoint file:  "02-PbI2_ACN.chk"
 Charge =  0 Multiplicity = 1

                         Standard orientation:
 ---------------------------------------------------------------------
 Center     Atomic      Atomic             Coordinates (Angstroms)
 Number     Number       Type             X           Y           Z
 ---------------------------------------------------------------------
      1         82           0        0.092340    0.014683   -0.753655
      2         53           0        2.022045   -1.408764    1.192367
      3         53           0       -2.435695   -0.246783    1.049426
      4          6           0       -2.829117    3.553507   -0.569072
      5          1           0       -2.280240    4.434163   -0.183318
      6          1           0       -3.728011    3.894929   -1.117299
      7          1           0       -3.139317    2.910989    0.280559
      8          6           0       -1.970721    2.774537   -1.441808
      9          7           0       -1.269658    2.120462   -2.122690
     10          6           0        4.751754    0.805471   -0.966374
     11          1           0        5.179585    1.760327   -0.605171
     12          1           0        5.420939    0.371873   -1.734072
     13          1           0        4.659612    0.098204   -0.116295
     14          6           0        3.429189    1.025800   -1.520113
     15          7           0        2.346674    1.188006   -1.949161
     16          6           0       -2.564551   -3.886133   -0.943162
     17          1           0       -3.274384   -4.109046   -1.762648
     18          1           0       -2.202491   -4.834995   -0.503005
     19          1           0       -3.079579   -3.290370   -0.161551
     20          6           0       -1.447822   -3.108736   -1.444942
     21          7           0       -0.547495   -2.461623   -1.835304
     22          6           0        0.943182    4.261459    2.077691
     23          1           0        1.756424    4.084427    2.807570
     24          1           0        1.223400    5.104150    1.416805
     25          1           0        0.014439    4.518702    2.622688
     26          6           0        0.728004    3.067260    1.284760
     27          7           0        0.550727    2.101385    0.646944
 ---------------------------------------------------------------------

 SCF Done:  E(RCAM-B3LYP) =  -557.327084624     A.U. after   11 cycles

 Excitation energies and oscillator strengths:

 Excited State   1:      Singlet-A      5.0814 eV  244.00 nm  f=0.0213  <S**2>=0.000
      52 -> 54         0.20181
      52 -> 55         0.50052
      53 -> 54        -0.42519
 This state for optimization and/or second-order correction.
 Total Energy, E(TD-HF/TD-DFT) =  -557.140345854
 Copying the excited state density for this state as the 1-particle RhoCI density.

 Excited State   2:      Singlet-A      5.1377 eV  241.32 nm  f=0.0179  <S**2>=0.000
      49 -> 55         0.15959
      52 -> 54         0.58202
      52 -> 55        -0.19935
      53 -> 55        -0.26631

 Excited State   3:      Singlet-A      5.2114 eV  237.91 nm  f=0.0171  <S**2>=0.000
      50 -> 54         0.28816
      50 -> 55         0.21291
      51 -> 54         0.40708
      51 -> 55         0.32015
      52 -> 54         0.14338
      53 -> 55         0.24617

 Excited State   4:      Singlet-A      5.2455 eV  236.36 nm  f=0.0815  <S**2>=0.000
      50 -> 54        -0.17511
      51 -> 55        -0.28432
      52 -> 54         0.23693
      53 -> 55         0.53409
      53 -> 56         0.10781

 Excited State   5:      Singlet-A      5.2725 eV  235.15 nm  f=0.0226  <S**2>=0.000
      50 -> 54         0.16126
      50 -> 55        -0.35097
      51 -> 54        -0.36642
      51 -> 55         0.37949
      53 -> 55         0.16882

 Excited State   6:      Singlet-A      5.4203 eV  228.74 nm  f=0.3795  <S**2>=0.000
      48 -> 55        -0.17716
      49 -> 54         0.14564
      51 -> 55        -0.10650
      52 -> 55         0.35507
      53 -> 54         0.48915
      53 -> 55        -0.12513
      53 -> 56         0.17051

 Excited State   7:      Singlet-A      5.5181 eV  224.69 nm  f=0.0078  <S**2>=0.000
      50 -> 55         0.54002
      51 -> 54        -0.34350
      51 -> 55         0.18187
      53 -> 56         0.18833

 Excited State   8:      Singlet-A      5.5305 eV  224.18 nm  f=0.0084  <S**2>=0.000
      50 -> 54         0.57252
      51 -> 54        -0.14489
      51 -> 55        -0.32928
      53 -> 56         0.14281

 Excited State   9:      Singlet-A      5.5365 eV  223.94 nm  f=0.1003  <S**2>=0.000
      50 -> 54        -0.10459
      50 -> 55        -0.12779
      51 -> 54         0.20077
      52 -> 55        -0.10065
      53 -> 54        -0.11909
      53 -> 56         0.60634

 Excited State  10:      Singlet-A      5.6931 eV  217.78 nm  f=0.0053  <S**2>=0.000
      49 -> 54         0.17317
      49 -> 55        -0.20150
      52 -> 55        -0.13862
      52 -> 56         0.62064

 The electronic state is 1-A.
 Alpha  occ. eigenvalues --  -14.42937 -14.41615 -14.41471 -14.41357 -10.34092
 Alpha  occ. eigenvalues --  -10.32879 -10.32675 -10.32520 -10.30225 -10.29550
 Alpha  occ. eigenvalues --  -10.29523 -10.29509  -1.02272  -1.01034  -1.00846
 Alpha  occ. eigenvalues --   -1.00729  -0.86597  -0.85842  -0.85762  -0.85737
 Alpha  occ. eigenvalues --   -0.70929  -0.69756  -0.61183  -0.59158  -0.58850
 Alpha  occ. eigenvalues --   -0.58730  -0.57471  -0.53804  -0.53658  -0.53169
 Alpha  occ. eigenvalues --   -0.52983  -0.52967  -0.52921  -0.52844  -0.52721
 Alpha  occ. eigenvalues --   -0.50087  -0.48019  -0.47079  -0.44931  -0.43174
 Alpha  occ. eigenvalues --   -0.42923  -0.41913  -0.41685  -0.41475  -0.41085
 Alpha  occ. eigenvalues --   -0.40951  -0.40125  -0.31791  -0.30501  -0.29569
 Alpha  occ. eigenvalues --   -0.29148  -0.28521  -0.28366
 Alpha virt. eigenvalues --   -0.00038   0.00061   0.01391   0.04706   0.04783
 Alpha virt. eigenvalues --    0.05532   0.05701   0.05917   0.06065   0.06825
 Alpha virt. eigenvalues --    0.07429   0.07589   0.08493   0.09290   0.09641

 Mulliken charges:
               1
     1  Pb   1.047180
     2  I   -0.637153
     3  I   -0.637811
     4  C   -0.226295
     5  H    0.147470
     6  H    0.151969
     7  H    0.123278
     8  C    0.009199
     9  N   -0.169485
    10  C   -0.220058
    11  H    0.146044
    12  H    0.146701
    13  H    0.121313
    14  C    0.025729
    15  N   -0.177295
    16  C   -0.220202
    17  H    0.146763
    18  H    0.147310
    19  H    0.123592
    20  C    0.024464
    21  N   -0.180560
    22  C   -0.233312
    23  H    0.151807
    24  H    0.150077
    25  H    0.148984
    26  C    0.067968
    27  N   -0.177675
 Sum of Mulliken charges =  -0.00000

 Dipole moment (field-independent basis, Debye):
    X=              1.0928    Y=             11.0981    Z=             -2.4816  Tot=             11.4245
 Quadrupole moment (field-independent basis, Debye-Ang):
   XX=           -101.0933   YY=            -66.8849   ZZ=           -141.0819
   XY=             19.7649   XZ=              4.7295   YZ=             27.8906

 Normal termination of Gaussian 16 at Wed Nov 11 19:27:35 2020.
