 Gaussian 16, Revision C.01,
 Gaussian 16:  ES64L-G16RevC.01  3-Jul-2019

 ----------------------------------------------------------------------
 # cam-b3lyp/gen pseudo=read TD=NStates=10 Geom=Check Guess=Read empiri
 caldispersion=gd3bj SCRF=(Solvent=n,n-DiMethylFormamide)
 ----------------------------------------------------------------------

 --------
 PbI2_dmf
 --------
 Structure from the checkpoint file:  "02-PbI2_dmf.chk"
 Charge =  0 Multiplicity = 1

                         Standard orientation:
 ---------------------------------------------------------------------
 Center     Atomic      Atomic             Coordinates (Angstroms)
 Number     Number       Type             X           Y           Z
 ---------------------------------------------------------------------
      1         82           0       -0.213817    0.370513    0.078122
      2         53           0       -2.521639   -1.366062    1.522811
      3         53           0        0.695486   -1.813475   -2.200332
      4          8           0        1.727893    1.819939   -0.624607
      5          8           0       -0.126156    2.024587    1.880519
      6          8           0       -1.970014    2.006293   -1.015652
      7          8           0        1.388184   -0.677635    1.603499
      8          6           0        0.783735    2.866370    2.097474
      9          1           0        1.543127    2.707621    2.899883
     10          7           0        0.942530    4.026377    1.439658
     11          6           0        0.073134    4.401780    0.332274
     12          6           0        2.053072    4.914888    1.746481
     13          1           0        2.618711    4.520272    2.610254
     14          1           0        1.677351    5.928803    1.991209
     15          1           0        2.733154    4.992107    0.873138
     16          1           0       -0.370320    5.398792    0.529003
     17          1           0        0.664645    4.447694   -0.603953
     18          1           0       -0.722885    3.645649    0.215006
     19          6           0        2.544424    1.695852   -1.572838
     20          1           0        2.435527    2.282478   -2.515793
     21          7           0        3.624446    0.894851   -1.570398
     22          6           0        3.928539    0.039277   -0.432268
     23          6           0        4.489388    0.796310   -2.736138
     24          1           0        4.150894    1.507937   -3.511253
     25          1           0        4.456930   -0.232089   -3.151117
     26          1           0        5.536439    1.032614   -2.458159
     27          1           0        3.831185   -1.026431   -0.725204
     28          1           0        4.965399    0.226999   -0.087504
     29          1           0        3.209949    0.254124    0.376534
     30          6           0        1.472646   -1.935940    1.660477
     31          1           0        0.697302   -2.601263    1.219480
     32          7           0        2.482398   -2.589244    2.252780
     33          6           0        3.583477   -1.868274    2.879414
     34          6           0        2.529322   -4.044648    2.269972
     35          1           0        1.642546   -4.450005    1.750034
     36          1           0        2.540787   -4.416090    3.314571
     37          1           0        3.445134   -4.402673    1.757386
     38          1           0        3.707122   -2.210880    3.925907
     39          1           0        4.527592   -2.059198    2.329256
     40          1           0        3.353150   -0.789573    2.862736
     41          6           0       -3.216988    1.869887   -0.975878
     42          1           0       -3.868293    2.595735   -0.432047
     43          7           0       -3.914735    0.882695   -1.571391
     44          6           0       -3.246144   -0.166810   -2.327160
     45          6           0       -5.353334    0.764465   -1.390027
     46          1           0       -5.726526    1.630440   -0.812946
     47          1           0       -5.595089   -0.167088   -0.837329
     48          1           0       -5.864654    0.735791   -2.373475
     49          1           0       -3.280174   -1.124434   -1.767006
     50          1           0       -3.748069   -0.298992   -3.306243
     51          1           0       -2.191204    0.117886   -2.485113
 ---------------------------------------------------------------------

 SCF Done:  E(RCAM-B3LYP) =  -1020.39601651     A.U. after   11 cycles

 Excitation energies and oscillator strengths:

 Excited State   1:      Singlet-A      5.2530 eV  236.02 nm  f=0.3746  <S**2>=0.000
      89 ->  90        0.67170
 This state for optimization and/or second-order correction.
 Total Energy, E(TD-HF/TD-DFT) =  -1020.20297112
 Copying the excited state density for this state as the 1-particle RhoCI density.

 Excited State   2:      Singlet-A      5.3240 eV  232.88 nm  f=0.3115  <S**2>=0.000
      89 ->  91        0.65024
      89 ->  96       -0.10478

 Excited State   3:      Singlet-A      5.4402 eV  227.90 nm  f=0.0994  <S**2>=0.000
      79 ->  92        0.10809
      89 ->  92        0.63890
      89 ->  94       -0.13756

 Excited State   4:      Singlet-A      5.6192 eV  220.65 nm  f=0.0310  <S**2>=0.000
      88 ->  90        0.62906
      88 ->  91       -0.16222
      88 ->  92        0.11444
      88 ->  94       -0.12818

 Excited State   5:      Singlet-A      5.7198 eV  216.76 nm  f=0.0120  <S**2>=0.000
      86 ->  90       -0.42268
      86 ->  92       -0.14868
      86 ->  94        0.16848
      87 ->  90        0.44761

 Excited State   6:      Singlet-A      5.7571 eV  215.36 nm  f=0.0047  <S**2>=0.000
      85 ->  91        0.13922
      86 ->  90        0.20730
      87 ->  90        0.17457
      88 ->  90        0.11782
      88 ->  91        0.48919
      88 ->  94        0.14327
      88 ->  96       -0.15101
      89 ->  93       -0.21206

 Excited State   7:      Singlet-A      5.7778 eV  214.59 nm  f=0.0050  <S**2>=0.000
      85 ->  90        0.16787
      86 ->  90        0.37671
      86 ->  91       -0.10678
      87 ->  90        0.39215
      87 ->  91       -0.15393
      88 ->  91       -0.20104
      89 ->  93        0.16302

 Excited State   8:      Singlet-A      5.8063 eV  213.53 nm  f=0.0717  <S**2>=0.000
      76 ->  93        0.13796
      79 ->  93        0.11622
      85 ->  90        0.24785
      87 ->  90       -0.11224
      87 ->  91        0.16868
      88 ->  90        0.12800
      88 ->  91        0.18874
      89 ->  93        0.45590

 Excited State   9:      Singlet-A      5.8345 eV  212.50 nm  f=0.0214  <S**2>=0.000
      85 ->  90        0.10694
      85 ->  91       -0.11019
      86 ->  91        0.14644
      87 ->  90        0.13025
      87 ->  91        0.52871
      87 ->  94        0.14719
      87 ->  96       -0.17095
      89 ->  93       -0.15017

 Excited State  10:      Singlet-A      5.8544 eV  211.78 nm  f=0.0431  <S**2>=0.000
      78 ->  90        0.11421
      85 ->  90        0.50121
      85 ->  92        0.10347
      86 ->  90       -0.11221
      87 ->  90       -0.22458
      87 ->  91       -0.14975
      89 ->  93       -0.20266

 The electronic state is 1-A.
 Alpha  occ. eigenvalues --  -19.20636 -19.19720 -19.19693 -19.19276 -14.45509
 Alpha  occ. eigenvalues --  -14.45049 -14.45007 -14.44668 -10.37515 -10.37185
 Alpha  occ. eigenvalues --  -10.37149 -10.36796 -10.29347 -10.29194 -10.29142
 Alpha  occ. eigenvalues --  -10.28991 -10.28875 -10.28244 -10.28167 -10.28022
 Alpha  occ. eigenvalues --   -1.14154  -1.13522  -1.13209  -1.12978  -1.04434
 Alpha  occ. eigenvalues --   -1.03981  -1.03910  -1.03639  -0.81987  -0.81497
 Alpha  occ. eigenvalues --   -0.81415  -0.81410  -0.79856  -0.79462  -0.79392
 Alpha  occ. eigenvalues --   -0.79099  -0.68881  -0.68085  -0.65929  -0.65573
 Alpha  occ. eigenvalues --   -0.65342  -0.65174  -0.61540  -0.60159  -0.59908
 Alpha  occ. eigenvalues --   -0.59682  -0.59439  -0.57014  -0.56666  -0.56246
 Alpha  occ. eigenvalues --   -0.55991  -0.55847  -0.55614  -0.55249  -0.52628
 Alpha  occ. eigenvalues --   -0.50222  -0.49751  -0.49492  -0.48486  -0.48119
 Alpha  occ. eigenvalues --   -0.47969  -0.47781  -0.47702  -0.47612  -0.47400
 Alpha  occ. eigenvalues --   -0.47282  -0.47095  -0.47032  -0.46670  -0.46479
 Alpha  occ. eigenvalues --   -0.46171  -0.45742  -0.45246  -0.45113  -0.43837
 Alpha  occ. eigenvalues --   -0.37232  -0.36182  -0.36055  -0.35150  -0.33481
 Alpha  occ. eigenvalues --   -0.33453  -0.32849  -0.32488  -0.29898  -0.28658
 Alpha  occ. eigenvalues --   -0.28290  -0.28001  -0.27576  -0.26121
 Alpha virt. eigenvalues --    0.01888   0.02084   0.03074   0.03931   0.05558
 Alpha virt. eigenvalues --    0.06213   0.06503   0.06937   0.07577   0.08201
 Alpha virt. eigenvalues --    0.08556   0.09597   0.10754   0.11093   0.11158

 Mulliken charges:
               1
     1  Pb   1.102549
     2  I   -0.713359
     3  I   -0.736013
     4  O   -0.508472
     5  O   -0.513830
     6  O   -0.486105
     7  O   -0.511588
     8  C    0.187667
     9  H    0.107051
    10  N    0.017687
    11  C   -0.222452
    12  C   -0.166627
    13  H    0.108451
    14  H    0.110524
    15  H    0.106269
    16  H    0.118712
    17  H    0.115698
    18  H    0.114537
    19  C    0.183605
    20  H    0.110720
    21  N    0.003279
    22  C   -0.208854
    23  C   -0.169261
    24  H    0.109004
    25  H    0.104462
    26  H    0.109344
    27  H    0.107876
    28  H    0.118027
    29  H    0.119219
    30  C    0.224611
    31  H    0.098586
    32  N   -0.009975
    33  C   -0.217117
    34  C   -0.168250
    35  H    0.113601
    36  H    0.111081
    37  H    0.109770
    38  H    0.123452
    39  H    0.120683
    40  H    0.128044
    41  C    0.181071
    42  H    0.103463
    43  N   -0.001499
    44  C   -0.207741
    45  C   -0.168679
    46  H    0.108170
    47  H    0.101502
    48  H    0.108226
    49  H    0.105186
    50  H    0.120421
    51  H    0.097274
 Sum of Mulliken charges =  -0.00000

 Dipole moment (field-independent basis, Debye):
    X=             12.5241    Y=             11.7455    Z=              1.7073  Tot=             17.2547
 Quadrupole moment (field-independent basis, Debye-Ang):
   XX=           -120.7506   YY=           -146.2957   ZZ=           -181.7414
   XY=            -12.0516   XZ=             33.3959   YZ=            -15.4649

 Normal termination of Gaussian 16 at Wed Nov 11 22:42:09 2020.
