 Gaussian 16, Revision C.01,
 Gaussian 16:  ES64L-G16RevC.01  3-Jul-2019

 ----------------------------------------------------------------------
 # cam-b3lyp/gen pseudo=read TD=NStates=10 Geom=Check Guess=Read empiri
 caldispersion=gd3bj SCRF=(Solvent=DMSO)
 ----------------------------------------------------------------------

 ---------
 PbI2_DMSO
 ---------
 Structure from the checkpoint file:  "02-PbI2_DMSO.chk"
 Charge =  0 Multiplicity = 1

                         Standard orientation:
 ---------------------------------------------------------------------
 Center     Atomic      Atomic             Coordinates (Angstroms)
 Number     Number       Type             X           Y           Z
 ---------------------------------------------------------------------
      1         82           0        0.125738   -0.011057    0.423469
      2         53           0       -2.417708   -0.308697   -1.918744
      3         53           0        2.717167   -0.708321   -1.718487
      4          8           0       -1.522999   -0.223952    2.130927
      5         16           0       -2.799498    0.593650    2.593176
      6          6           0       -4.220186   -0.322319    1.902658
      7          6           0       -2.902171    2.054206    1.506787
      8          1           0       -4.276349   -1.283663    2.444494
      9          1           0       -1.939951    2.591001    1.606610
     10          1           0       -5.133258    0.275626    2.087041
     11          1           0       -3.750941    2.675300    1.851310
     12          1           0       -4.038348   -0.473240    0.820108
     13          1           0       -3.042420    1.706016    0.465179
     14          8           0        1.369182    0.456416    2.363045
     15         16           0        2.842819    0.977656    2.630411
     16          6           0        3.940006   -0.413164    2.197061
     17          6           0        3.253964    2.102860    1.255057
     18          1           0        3.716251   -1.219492    2.918872
     19          1           0        2.433733    2.843789    1.234070
     20          1           0        4.986598   -0.070693    2.311729
     21          1           0        4.228142    2.574095    1.485683
     22          1           0        3.723892   -0.726387    1.155582
     23          1           0        3.287021    1.529364    0.307054
     24          8           0        0.123981    2.599695    0.405944
     25         16           0        0.096414    3.601621   -0.819333
     26          6           0       -1.657805    3.784683   -1.300857
     27          6           0        0.630613    2.639500   -2.276202
     28          1           0       -2.169320    4.302398   -0.469408
     29          1           0        1.665285    2.302759   -2.079888
     30          1           0       -1.690330    4.409052   -2.214212
     31          1           0        0.596412    3.308572   -3.157246
     32          1           0       -2.083491    2.777725   -1.483426
     33          1           0       -0.045077    1.769380   -2.400826
     34          8           0        0.502223   -2.242864    1.216179
     35         16           0       -0.191761   -3.606755    0.815895
     36          6           0       -0.115915   -3.704509   -1.005262
     37          6           0       -1.989538   -3.340472    0.991999
     38          1           0        0.957345   -3.707350   -1.269453
     39          1           0       -2.151567   -3.063222    2.048664
     40          1           0       -0.601404   -4.649533   -1.315995
     41          1           0       -2.498021   -4.293555    0.750659
     42          1           0       -0.628238   -2.823095   -1.440961
     43          1           0       -2.308324   -2.524048    0.314537
 ---------------------------------------------------------------------

 SCF Done:  E(RCAM-B3LYP) =  -2239.33404517     A.U. after   11 cycles

 Excitation energies and oscillator strengths:

 Excited State   1:      Singlet-A      5.2876 eV  234.48 nm  f=0.1444  <S**2>=0.000
      86 -> 94         0.10766
      87 -> 94         0.10582
      93 -> 94         0.63039
      93 -> 96         0.14256
 This state for optimization and/or second-order correction.
 Total Energy, E(TD-HF/TD-DFT) =  -2239.13973020
 Copying the excited state density for this state as the 1-particle RhoCI density.

 Excited State   2:      Singlet-A      5.2975 eV  234.04 nm  f=0.1873  <S**2>=0.000
      87 -> 95         0.13410
      93 -> 95         0.61918
      93 -> 96        -0.17185

 Excited State   3:      Singlet-A      5.3830 eV  230.33 nm  f=0.4310  <S**2>=0.000
      87 -> 96         0.13209
      93 -> 94        -0.13868
      93 -> 95         0.21175
      93 -> 96         0.59614

 Excited State   4:      Singlet-A      5.7307 eV  216.35 nm  f=0.0107  <S**2>=0.000
      84 -> 94        -0.14085
      86 -> 94        -0.27203
      86 -> 96         0.10479
      86 ->103        -0.12290
      88 -> 94        -0.25471
      89 -> 94        -0.23419
      89 -> 95         0.15418
      89 -> 96         0.10586
      92 -> 94         0.27295
      92 -> 95        -0.14127
      92 -> 96        -0.18075

 Excited State   5:      Singlet-A      5.7847 eV  214.33 nm  f=0.0075  <S**2>=0.000
      84 -> 94        -0.15071
      84 -> 95        -0.12715
      85 -> 96         0.11372
      86 -> 95         0.10716
      87 -> 98         0.10512
      88 -> 94        -0.17477
      88 -> 95        -0.14416
      90 -> 95        -0.12697
      90 -> 96         0.10250
      92 -> 95         0.37628
      92 -> 96         0.26580

 Excited State   6:      Singlet-A      5.8033 eV  213.64 nm  f=0.0049  <S**2>=0.000
      86 -> 94        -0.14547
      89 -> 94        -0.20844
      90 -> 95         0.11552
      90 -> 96        -0.12915
      91 -> 96        -0.15890
      92 -> 94        -0.32295
      92 -> 95         0.10951
      92 -> 96         0.33432
      92 ->103         0.13671

 Excited State   7:      Singlet-A      5.8192 eV  213.06 nm  f=0.0081  <S**2>=0.000
      91 -> 94        -0.38457
      91 -> 95         0.23320
      91 -> 96         0.45956
      91 ->103         0.16669

 Excited State   8:      Singlet-A      5.8642 eV  211.43 nm  f=0.0062  <S**2>=0.000
      85 -> 95         0.11398
      85 -> 96        -0.13587
      87 -> 95         0.16712
      87 -> 98        -0.13918
      88 -> 96        -0.10937
      89 -> 94         0.11841
      90 -> 95         0.34302
      90 -> 96        -0.10527
      92 -> 94         0.28313
      92 -> 95         0.20532
      93 -> 95        -0.14068

 Excited State   9:      Singlet-A      5.9328 eV  208.98 nm  f=0.0160  <S**2>=0.000
      85 -> 96         0.10003
      90 -> 95         0.41921
      90 -> 96         0.41312
      90 ->103         0.10354
      91 -> 95        -0.19559

 Excited State  10:      Singlet-A      5.9484 eV  208.43 nm  f=0.0601  <S**2>=0.000
      86 -> 94         0.10382
      87 -> 95         0.10288
      88 -> 95        -0.12066
      89 -> 94         0.10017
      89 -> 95         0.34867
      89 -> 96         0.20642
      91 -> 94         0.13301
      91 -> 95         0.16500
      92 -> 94        -0.10087
      92 -> 95        -0.34842
      92 -> 96         0.10168

 The electronic state is 1-A.
 Alpha  occ. eigenvalues --  -89.08750 -89.08696 -89.08565 -89.08224 -19.19563
 Alpha  occ. eigenvalues --  -19.19358 -19.19205 -19.18543 -10.28723 -10.28559
 Alpha  occ. eigenvalues --  -10.28515 -10.28501 -10.28484 -10.28452 -10.28350
 Alpha  occ. eigenvalues --  -10.28229  -8.12669  -8.12625  -8.12483  -8.12136
 Alpha  occ. eigenvalues --   -6.09176  -6.09137  -6.09005  -6.08985  -6.08956
 Alpha  occ. eigenvalues --   -6.08823  -6.08622  -6.08486  -6.08457  -6.08408
 Alpha  occ. eigenvalues --   -6.08274  -6.07934  -1.09769  -1.09346  -1.09219
 Alpha  occ. eigenvalues --   -1.08574  -0.89259  -0.88958  -0.88834  -0.88583
 Alpha  occ. eigenvalues --   -0.80515  -0.80311  -0.80215  -0.79934  -0.71183
 Alpha  occ. eigenvalues --   -0.69653  -0.69491  -0.69094  -0.67897  -0.67477
 Alpha  occ. eigenvalues --   -0.58729  -0.54669  -0.54512  -0.54328  -0.54176
 Alpha  occ. eigenvalues --   -0.54108  -0.53940  -0.53697  -0.52987  -0.52864
 Alpha  occ. eigenvalues --   -0.52740  -0.52479  -0.52064  -0.49802  -0.49468
 Alpha  occ. eigenvalues --   -0.49374  -0.49041  -0.49009  -0.48504  -0.48293
 Alpha  occ. eigenvalues --   -0.46230  -0.46092  -0.45870  -0.45731  -0.44487
 Alpha  occ. eigenvalues --   -0.43965  -0.43496  -0.43366  -0.43106  -0.37236
 Alpha  occ. eigenvalues --   -0.36934  -0.36546  -0.35756  -0.34061  -0.33691
 Alpha  occ. eigenvalues --   -0.33129  -0.31314  -0.28758  -0.28127  -0.27936
 Alpha  occ. eigenvalues --   -0.27564  -0.27392  -0.25946
 Alpha virt. eigenvalues --    0.02294   0.02642   0.02778   0.05456   0.05790
 Alpha virt. eigenvalues --    0.06222   0.06489   0.06862   0.07505   0.07800
 Alpha virt. eigenvalues --    0.08505   0.09005   0.09289   0.09763   0.10142

 Mulliken charges:
               1
     1  Pb   1.148816
     2  I   -0.700252
     3  I   -0.736734
     4  O   -0.675571
     5  S    0.579165
     6  C   -0.280209
     7  C   -0.310047
     8  H    0.136625
     9  H    0.134248
    10  H    0.142666
    11  H    0.145616
    12  H    0.110256
    13  H    0.103478
    14  O   -0.673297
    15  S    0.572627
    16  C   -0.255540
    17  C   -0.294621
    18  H    0.130714
    19  H    0.136009
    20  H    0.130641
    21  H    0.144982
    22  H    0.090558
    23  H    0.089832
    24  O   -0.667111
    25  S    0.560124
    26  C   -0.287032
    27  C   -0.281185
    28  H    0.137889
    29  H    0.121540
    30  H    0.146189
    31  H    0.140709
    32  H    0.098120
    33  H    0.098408
    34  O   -0.669240
    35  S    0.564028
    36  C   -0.263547
    37  C   -0.267466
    38  H    0.120962
    39  H    0.129541
    40  H    0.136125
    41  H    0.142747
    42  H    0.089090
    43  H    0.080146
 Sum of Mulliken charges =  -0.00000

 Dipole moment (field-independent basis, Debye):
    X=             -5.4853    Y=              6.4679    Z=             10.4912  Tot=             13.4903
 Quadrupole moment (field-independent basis, Debye-Ang):
   XX=           -164.8468   YY=           -132.6455   ZZ=           -202.1159
   XY=              9.5687   XZ=             -2.3715   YZ=            -13.1903

 Normal termination of Gaussian 16 at Wed Nov 11 21:54:25 2020.
