 Gaussian 16, Revision C.01,
 Gaussian 16:  ES64L-G16RevC.01  3-Jul-2019

 ----------------------------------------------------------------------
 # cam-b3lyp/gen pseudo=read TD=NStates=10 Geom=Check Guess=Read empiri
 caldispersion=gd3bj SCRF=(read)
 ----------------------------------------------------------------------

 --------
 PbI2_GBL
 --------
 Structure from the checkpoint file:  "02-PbI2_GBL.chk"
 Charge =  0 Multiplicity = 1

                         Standard orientation:
 ---------------------------------------------------------------------
 Center     Atomic      Atomic             Coordinates (Angstroms)
 Number     Number       Type             X           Y           Z
 ---------------------------------------------------------------------
      1         82           0       -0.172759   -0.639361    0.090056
      2         53           0       -1.748064    0.232283    2.671099
      3         53           0       -2.071169   -2.831858   -1.169164
      4          8           0        1.535845    1.403381    0.470676
      5          6           0        1.456077    2.606461    0.734888
      6          6           0        0.233709    3.490374    0.814424
      7          8           0        2.578578    3.306546    1.001287
      8          6           0        0.822916    4.905035    0.793028
      9          6           0        2.224988    4.683989    1.368448
     10          1           0        3.007831    5.338446    0.946954
     11          1           0        2.250289    4.740126    2.475481
     12          1           0        0.243675    5.636685    1.384290
     13          1           0        0.891689    5.274289   -0.249224
     14          1           0       -0.288530    3.243016    1.764470
     15          1           0       -0.459292    3.255644   -0.012291
     16          8           0        1.948405   -0.828978   -1.556157
     17          6           0        2.478939    0.162172   -2.061286
     18          6           0        1.842604    1.342356   -2.761796
     19          8           0        3.826030    0.290233   -2.048290
     20          6           0        2.951360    2.399141   -2.722683
     21          6           0        4.212942    1.530147   -2.730533
     22          1           0        5.067656    1.949593   -2.171180
     23          1           0        4.538416    1.254927   -3.754364
     24          1           0        2.926978    3.103437   -3.573473
     25          1           0        2.898728    2.981621   -1.781825
     26          1           0        1.617401    1.016852   -3.801066
     27          1           0        0.884919    1.618966   -2.284952
     28          8           0       -1.216251    1.301877   -1.242193
     29          6           0       -2.389944    1.690674   -1.321900
     30          6           0       -3.660277    0.973694   -0.943322
     31          8           0       -2.644725    2.930317   -1.773796
     32          6           0       -4.744672    1.807428   -1.634229
     33          6           0       -4.091056    3.191015   -1.706069
     34          1           0       -4.350479    3.782065   -2.601682
     35          1           0       -4.264527    3.798847   -0.795437
     36          1           0       -5.702392    1.831225   -1.084360
     37          1           0       -4.935319    1.419558   -2.653954
     38          1           0       -3.723557    1.009645    0.167764
     39          1           0       -3.607345   -0.093825   -1.230142
     40          8           0        1.456992   -2.303908    1.143416
     41          6           0        2.690234   -2.218096    1.101662
     42          6           0        3.580376   -1.033039    1.397824
     43          8           0        3.424636   -3.302750    0.787901
     44          6           0        4.910458   -1.441470    0.757311
     45          6           0        4.852851   -2.968456    0.856874
     46          1           0        5.346060   -3.507087    0.028365
     47          1           0        5.232012   -3.353186    1.825620
     48          1           0        5.798182   -1.025745    1.267204
     49          1           0        4.923137   -1.122862   -0.302918
     50          1           0        3.651663   -0.956668    2.505412
     51          1           0        3.133323   -0.092794    1.025592
 ---------------------------------------------------------------------

 SCF Done:  E(RCAM-B3LYP) =  -1251.94717066     A.U. after   12 cycles

 Excitation energies and oscillator strengths:

 Excited State   1:      Singlet-A      5.1398 eV  241.22 nm  f=0.1386  <S**2>=0.000
     100 ->104         0.10391
     101 ->102         0.56017
     101 ->103         0.21032
     101 ->104        -0.27923
 This state for optimization and/or second-order correction.
 Total Energy, E(TD-HF/TD-DFT) =  -1251.75828599
 Copying the excited state density for this state as the 1-particle RhoCI density.

 Excited State   2:      Singlet-A      5.2276 eV  237.17 nm  f=0.1878  <S**2>=0.000
     101 ->102        -0.26548
     101 ->103         0.58723
     101 ->105         0.11362
     101 ->108         0.10885

 Excited State   3:      Singlet-A      5.3168 eV  233.19 nm  f=0.1500  <S**2>=0.000
     100 ->102        -0.25109
     100 ->104         0.12352
     101 ->102         0.13301
     101 ->103         0.18047
     101 ->104         0.54889

 Excited State   4:      Singlet-A      5.3694 eV  230.91 nm  f=0.0438  <S**2>=0.000
      97 ->102        -0.14618
      97 ->104         0.10257
     100 ->102         0.58732
     100 ->103         0.14364
     100 ->106         0.15256
     101 ->102         0.12559
     101 ->104         0.17898

 Excited State   5:      Singlet-A      5.4387 eV  227.97 nm  f=0.0183  <S**2>=0.000
      98 ->102        -0.41649
      98 ->104         0.12810
      99 ->102         0.51402

 Excited State   6:      Singlet-A      5.5236 eV  224.46 nm  f=0.0063  <S**2>=0.000
      97 ->102        -0.10177
      98 ->102         0.39089
      98 ->106         0.10155
      99 ->102         0.27895
      99 ->103         0.26620
      99 ->104         0.25183
      99 ->106         0.16876
     100 ->103        -0.13191
     100 ->104        -0.15037

 Excited State   7:      Singlet-A      5.5711 eV  222.55 nm  f=0.0994  <S**2>=0.000
      97 ->102         0.42883
      99 ->102         0.10738
      99 ->104         0.18952
     100 ->103         0.25470
     100 ->104         0.27878
     100 ->106         0.12313
     101 ->102        -0.13264
     101 ->104        -0.11770

 Excited State   8:      Singlet-A      5.6847 eV  218.10 nm  f=0.0023  <S**2>=0.000
      97 ->102        -0.14699
      98 ->102        -0.32561
      98 ->104         0.18295
      99 ->102        -0.27352
      99 ->103         0.24205
      99 ->104         0.38673
      99 ->107         0.11241

 Excited State   9:      Singlet-A      5.7242 eV  216.60 nm  f=0.0037  <S**2>=0.000
      94 ->103        -0.15028
      94 ->104        -0.10268
      94 ->107         0.15624
      94 ->108         0.10827
      95 ->105        -0.11126
      97 ->102        -0.25001
      97 ->103         0.14865
      97 ->104         0.18531
     100 ->103        -0.18265
     100 ->104         0.32966
     101 ->105         0.22556

 Excited State  10:      Singlet-A      5.7407 eV  215.97 nm  f=0.0154  <S**2>=0.000
      93 ->103        -0.14316
      93 ->106         0.10404
      95 ->105        -0.17251
      97 ->102         0.20529
      98 ->102        -0.10793
      98 ->103        -0.10905
      99 ->103         0.23346
     100 ->104        -0.26933
     101 ->105         0.30599

 The electronic state is 1-A.
 Alpha  occ. eigenvalues --  -19.28321 -19.28022 -19.27694 -19.27477 -19.24335
 Alpha  occ. eigenvalues --  -19.23809 -19.23147 -19.23123 -10.42630 -10.42260
 Alpha  occ. eigenvalues --  -10.41821 -10.41796 -10.33346 -10.33208 -10.33085
 Alpha  occ. eigenvalues --  -10.32848 -10.28843 -10.28762 -10.28675 -10.28246
 Alpha  occ. eigenvalues --  -10.28246 -10.28162 -10.28123 -10.27547  -1.21167
 Alpha  occ. eigenvalues --   -1.20746  -1.20297  -1.20200  -1.12716  -1.12361
 Alpha  occ. eigenvalues --   -1.11919  -1.11722  -0.89849  -0.89653  -0.89572
 Alpha  occ. eigenvalues --   -0.89203  -0.82345  -0.82125  -0.81854  -0.81661
 Alpha  occ. eigenvalues --   -0.71434  -0.71160  -0.70845  -0.70591  -0.69988
 Alpha  occ. eigenvalues --   -0.69208  -0.65541  -0.64791  -0.64479  -0.64141
 Alpha  occ. eigenvalues --   -0.61287  -0.60059  -0.59942  -0.59727  -0.59569
 Alpha  occ. eigenvalues --   -0.59168  -0.59030  -0.58320  -0.56203  -0.55054
 Alpha  occ. eigenvalues --   -0.54443  -0.54058  -0.53151  -0.51395  -0.50962
 Alpha  occ. eigenvalues --   -0.50698  -0.50408  -0.50324  -0.50138  -0.49849
 Alpha  occ. eigenvalues --   -0.49476  -0.48897  -0.48524  -0.48242  -0.46380
 Alpha  occ. eigenvalues --   -0.45236  -0.44783  -0.44709  -0.44304  -0.43548
 Alpha  occ. eigenvalues --   -0.43429  -0.43336  -0.42901  -0.41881  -0.41788
 Alpha  occ. eigenvalues --   -0.41376  -0.41062  -0.38459  -0.38242  -0.37911
 Alpha  occ. eigenvalues --   -0.37583  -0.37378  -0.36752  -0.36497  -0.36172
 Alpha  occ. eigenvalues --   -0.31476  -0.29549  -0.29217  -0.28738  -0.28399
 Alpha  occ. eigenvalues --   -0.27136
 Alpha virt. eigenvalues --    0.00818   0.01163   0.01639   0.02972   0.04019
 Alpha virt. eigenvalues --    0.04623   0.05948   0.08107   0.09942   0.10352
 Alpha virt. eigenvalues --    0.11008   0.12461   0.12813   0.13244   0.13717

 Mulliken charges:
               1
     1  Pb   1.026629
     2  I   -0.692381
     3  I   -0.700492
     4  O   -0.326482
     5  C    0.244999
     6  C   -0.052005
     7  O   -0.239394
     8  C   -0.038214
     9  C    0.128422
    10  H    0.064386
    11  H    0.067140
    12  H    0.051364
    13  H    0.053088
    14  H    0.085892
    15  H    0.073641
    16  O   -0.324150
    17  C    0.233909
    18  C   -0.050706
    19  O   -0.239506
    20  C   -0.049155
    21  C    0.135973
    22  H    0.063093
    23  H    0.063857
    24  H    0.049553
    25  H    0.047175
    26  H    0.083917
    27  H    0.059711
    28  O   -0.343014
    29  C    0.261691
    30  C   -0.046541
    31  O   -0.235155
    32  C   -0.036850
    33  C    0.130696
    34  H    0.066215
    35  H    0.067887
    36  H    0.052982
    37  H    0.055294
    38  H    0.087907
    39  H    0.072272
    40  O   -0.339803
    41  C    0.241961
    42  C   -0.066063
    43  O   -0.232640
    44  C   -0.048177
    45  C    0.131352
    46  H    0.061055
    47  H    0.061647
    48  H    0.044716
    49  H    0.047956
    50  H    0.081900
    51  H    0.062446
 Sum of Mulliken charges =  -0.00000

 Dipole moment (field-independent basis, Debye):
    X=             12.8476    Y=             20.8260    Z=             -6.7854  Tot=             25.3934
 Quadrupole moment (field-independent basis, Debye-Ang):
   XX=           -141.5811   YY=           -181.0020   ZZ=           -201.4528
   XY=            -25.4849   XZ=             14.3058   YZ=            -18.4999

 Normal termination of Gaussian 16 at Thu Nov 12 00:57:51 2020.
