 Gaussian 16, Revision C.01,
 Gaussian 16:  ES64L-G16RevC.01  3-Jul-2019

 ----------------------------------------------------------------------
 # cam-b3lyp/gen pseudo=read TD=NStates=10 Geom=Check Guess=Read empiri
 caldispersion=gd3bj SCRF=(read)
 ----------------------------------------------------------------------

 --------
 PbI2_NMP
 --------
 Structure from the checkpoint file:  "02-PbI2_NMP.chk"
 Charge =  0 Multiplicity = 1

                         Standard orientation:
 ---------------------------------------------------------------------
 Center     Atomic      Atomic             Coordinates (Angstroms)
 Number     Number       Type             X           Y           Z
 ---------------------------------------------------------------------
      1         82           0       -0.266769   -0.102442   -0.499492
      2         53           0       -0.349387   -3.321776   -1.484266
      3         53           0       -3.307365    1.069115   -1.418833
      4          8           0        1.690195   -0.559067    0.847389
      5          6           0        1.975466   -1.376526    1.763630
      6          6           0        1.159171   -2.550122    2.258374
      7          7           0        3.116119   -1.293623    2.487237
      8          6           0        2.153685   -3.347465    3.116782
      9          6           0        3.196609   -2.299268    3.550051
     10          6           0        4.059171   -0.199124    2.374327
     11          1           0        3.766119    0.415204    1.504047
     12          1           0        4.043533    0.426911    3.291114
     13          1           0        5.087018   -0.588434    2.230355
     14          1           0        0.308705   -2.133975    2.838236
     15          1           0        0.724686   -3.104494    1.403878
     16          1           0        1.684538   -3.847735    3.982798
     17          1           0        2.645250   -4.123327    2.497072
     18          1           0        4.225740   -2.703908    3.616023
     19          1           0        2.950291   -1.828751    4.528289
     20          8           0        0.121013    1.911577    0.822350
     21          6           0        0.475598    3.024488    0.348892
     22          6           0       -0.007825    3.687029   -0.925397
     23          7           0        1.347645    3.850736    0.971823
     24          6           0        0.941887    4.882263   -1.107824
     25          6           0        1.490745    5.149113    0.308198
     26          6           0        1.941030    3.562412    2.261954
     27          1           0        1.711047    2.512097    2.516127
     28          1           0        1.529892    4.232634    3.045494
     29          1           0        3.039171    3.705190    2.214635
     30          1           0       -1.065132    3.988199   -0.767016
     31          1           0        0.006641    2.966104   -1.762676
     32          1           0        0.447428    5.773396   -1.533631
     33          1           0        1.773895    4.600780   -1.783044
     34          1           0        2.553086    5.464002    0.314698
     35          1           0        0.903525    5.917942    0.857622
     36          8           0        1.786521    1.056958   -1.652056
     37          6           0        2.891201    0.461409   -1.597101
     38          6           0        3.182458   -0.972069   -2.006846
     39          7           0        4.055125    1.033745   -1.191697
     40          6           0        4.565049   -1.253586   -1.402642
     41          6           0        5.210853    0.141710   -1.308445
     42          6           0        4.190592    2.433136   -0.848112
     43          1           0        3.177771    2.866190   -0.775964
     44          1           0        4.773069    2.979310   -1.619767
     45          1           0        4.709948    2.541618    0.125750
     46          1           0        3.195563   -0.999197   -3.118398
     47          1           0        2.381028   -1.657594   -1.671542
     48          1           0        5.175221   -1.954890   -1.999599
     49          1           0        4.448119   -1.679140   -0.385980
     50          1           0        5.873780    0.259800   -0.427856
     51          1           0        5.800965    0.400631   -2.216275
     52          8           0       -1.334841   -0.708203    1.550848
     53          6           0       -2.368882   -0.159556    2.032815
     54          6           0       -2.479293    1.240400    2.599387
     55          7           0       -3.572561   -0.761674    2.101487
     56          6           0       -3.830816    1.230951    3.330990
     57          6           0       -4.623924    0.117978    2.619589
     58          6           0       -3.867010   -2.039090    1.484421
     59          1           0       -2.916708   -2.485005    1.139068
     60          1           0       -4.539284   -1.894688    0.613117
     61          1           0       -4.360742   -2.712858    2.212473
     62          1           0       -2.465314    1.931621    1.729671
     63          1           0       -1.603004    1.484011    3.226960
     64          1           0       -4.357628    2.201331    3.293227
     65          1           0       -3.683773    0.960598    4.395285
     66          1           0       -5.298876   -0.444978    3.293624
     67          1           0       -5.224610    0.503797    1.766284
 ---------------------------------------------------------------------

 SCF Done:  E(RCAM-B3LYP) =  -1330.08264404     A.U. after   11 cycles

 Excitation energies and oscillator strengths:

 Excited State   1:      Singlet-A      5.1832 eV  239.20 nm  f=0.0837  <S**2>=0.000
     117 -> 118        0.67524
 This state for optimization and/or second-order correction.
 Total Energy, E(TD-HF/TD-DFT) =  -1329.89216572
 Copying the excited state density for this state as the 1-particle RhoCI density.

 Excited State   2:      Singlet-A      5.4758 eV  226.42 nm  f=0.3229  <S**2>=0.000
     117 -> 119        0.62907
     117 -> 120       -0.13948

 Excited State   3:      Singlet-A      5.6359 eV  219.99 nm  f=0.2407  <S**2>=0.000
     114 -> 118       -0.12468
     115 -> 118       -0.32789
     117 -> 119        0.10809
     117 -> 120        0.53446

 Excited State   4:      Singlet-A      5.6691 eV  218.70 nm  f=0.0811  <S**2>=0.000
     114 -> 118        0.28254
     115 -> 118        0.41552
     115 -> 120        0.11929
     116 -> 118        0.33880
     116 -> 120        0.11946
     117 -> 120        0.24398

 Excited State   5:      Singlet-A      5.6777 eV  218.37 nm  f=0.0744  <S**2>=0.000
     113 -> 118        0.21921
     114 -> 118       -0.14281
     115 -> 118       -0.24229
     116 -> 118        0.51810
     116 -> 120        0.17233
     117 -> 120       -0.20908

 Excited State   6:      Singlet-A      5.8253 eV  212.84 nm  f=0.0418  <S**2>=0.000
     113 -> 118        0.30165
     113 -> 119       -0.23241
     113 -> 120        0.16426
     116 -> 119        0.39298
     116 -> 120       -0.29360
     117 -> 120        0.10406

 Excited State   7:      Singlet-A      5.8381 eV  212.37 nm  f=0.0407  <S**2>=0.000
     113 -> 118       -0.11157
     114 -> 118        0.32870
     114 -> 119       -0.30691
     114 -> 120        0.22541
     115 -> 118       -0.17710
     115 -> 119        0.25341
     115 -> 120       -0.21890

 Excited State   8:      Singlet-A      5.8718 eV  211.15 nm  f=0.0101  <S**2>=0.000
     104 -> 119       -0.13946
     106 -> 121        0.10695
     107 -> 120       -0.11898
     107 -> 121        0.25963
     107 -> 122        0.17019
     117 -> 121        0.41830
     117 -> 122        0.10828

 Excited State   9:      Singlet-A      5.9008 eV  210.11 nm  f=0.0171  <S**2>=0.000
     105 -> 118       -0.17654
     106 -> 118       -0.14170
     112 -> 118       -0.10946
     113 -> 118        0.31059
     113 -> 120        0.13503
     114 -> 118       -0.12535
     114 -> 119       -0.16716
     115 -> 118        0.11843
     115 -> 119        0.15172
     115 -> 120       -0.11696
     116 -> 118       -0.22250
     116 -> 119       -0.21156
     116 -> 120        0.21386

 Excited State  10:      Singlet-A      5.9153 eV  209.60 nm  f=0.0208  <S**2>=0.000
     105 -> 118        0.10850
     106 -> 118        0.11030
     113 -> 118        0.29452
     113 -> 120        0.12703
     114 -> 118        0.31353
     114 -> 119        0.22320
     115 -> 118       -0.19428
     115 -> 119       -0.13989
     116 -> 118       -0.16481
     116 -> 120        0.14119
     117 -> 122        0.10841

 The electronic state is 1-A.
 Alpha  occ. eigenvalues --  -19.19826 -19.19633 -19.19506 -19.18726 -14.44241
 Alpha  occ. eigenvalues --  -14.44138 -14.44134 -14.43672 -10.37292 -10.37274
 Alpha  occ. eigenvalues --  -10.37203 -10.36714 -10.29653 -10.29512 -10.29392
 Alpha  occ. eigenvalues --  -10.29301 -10.28712 -10.28687 -10.28567 -10.28254
 Alpha  occ. eigenvalues --  -10.26590 -10.26366 -10.26247 -10.26183 -10.26180
 Alpha  occ. eigenvalues --  -10.26134 -10.26127 -10.26102  -1.13936  -1.13573
 Alpha  occ. eigenvalues --   -1.13408  -1.12766  -1.04638  -1.04474  -1.04425
 Alpha  occ. eigenvalues --   -1.04051  -0.89221  -0.89092  -0.88969  -0.88940
 Alpha  occ. eigenvalues --   -0.80879  -0.80705  -0.80627  -0.80369  -0.78379
 Alpha  occ. eigenvalues --   -0.78223  -0.78051  -0.78001  -0.69762  -0.69577
 Alpha  occ. eigenvalues --   -0.69409  -0.69200  -0.67729  -0.67320  -0.63770
 Alpha  occ. eigenvalues --   -0.61951  -0.61849  -0.61816  -0.60588  -0.59019
 Alpha  occ. eigenvalues --   -0.58877  -0.58477  -0.58291  -0.58175  -0.57812
 Alpha  occ. eigenvalues --   -0.57345  -0.55276  -0.54256  -0.54060  -0.53585
 Alpha  occ. eigenvalues --   -0.52630  -0.51665  -0.51198  -0.51092  -0.50956
 Alpha  occ. eigenvalues --   -0.50080  -0.49512  -0.49362  -0.49061  -0.48772
 Alpha  occ. eigenvalues --   -0.48345  -0.48207  -0.47821  -0.47498  -0.47403
 Alpha  occ. eigenvalues --   -0.47339  -0.46031  -0.45684  -0.45400  -0.45302
 Alpha  occ. eigenvalues --   -0.45186  -0.44989  -0.44906  -0.44769  -0.43391
 Alpha  occ. eigenvalues --   -0.42766  -0.42614  -0.42470  -0.42463  -0.40706
 Alpha  occ. eigenvalues --   -0.40650  -0.40146  -0.40088  -0.36090  -0.35683
 Alpha  occ. eigenvalues --   -0.35108  -0.34471  -0.32925  -0.32423  -0.32173
 Alpha  occ. eigenvalues --   -0.31878  -0.28936  -0.27781  -0.27620  -0.27401
 Alpha  occ. eigenvalues --   -0.27176  -0.25692
 Alpha virt. eigenvalues --    0.02438   0.02980   0.04124   0.04443   0.05265
 Alpha virt. eigenvalues --    0.05355   0.06289   0.06764   0.07233   0.08069
 Alpha virt. eigenvalues --    0.08174   0.08671   0.09485   0.09694   0.09943

 Mulliken charges:
               1
     1  Pb   1.129769
     2  I   -0.737209
     3  I   -0.752094
     4  O   -0.537098
     5  C    0.302460
     6  C   -0.164053
     7  N   -0.028597
     8  C   -0.191051
     9  C   -0.080878
    10  C   -0.242514
    11  H    0.131110
    12  H    0.124241
    13  H    0.125873
    14  H    0.123792
    15  H    0.089514
    16  H    0.114774
    17  H    0.110133
    18  H    0.111735
    19  H    0.106192
    20  O   -0.529336
    21  C    0.293669
    22  C   -0.167547
    23  N   -0.037449
    24  C   -0.210168
    25  C   -0.101617
    26  C   -0.225915
    27  H    0.127290
    28  H    0.122512
    29  H    0.118248
    30  H    0.125244
    31  H    0.121450
    32  H    0.125251
    33  H    0.116872
    34  H    0.124903
    35  H    0.118092
    36  O   -0.505563
    37  C    0.250694
    38  C   -0.140432
    39  N   -0.034700
    40  C   -0.202225
    41  C   -0.116058
    42  C   -0.221808
    43  H    0.109011
    44  H    0.123731
    45  H    0.115786
    46  H    0.126602
    47  H    0.074561
    48  H    0.120351
    49  H    0.115330
    50  H    0.123563
    51  H    0.116713
    52  O   -0.545229
    53  C    0.258882
    54  C   -0.144156
    55  N   -0.002827
    56  C   -0.192593
    57  C   -0.074846
    58  C   -0.192710
    59  H    0.109442
    60  H    0.101494
    61  H    0.113882
    62  H    0.096905
    63  H    0.125437
    64  H    0.114670
    65  H    0.109720
    66  H    0.112921
    67  H    0.095850
 Sum of Mulliken charges =  -0.00000

 Dipole moment (field-independent basis, Debye):
    X=             19.3328    Y=             12.1536    Z=             17.2483  Tot=             28.6177
 Quadrupole moment (field-independent basis, Debye-Ang):
   XX=           -179.8988   YY=           -218.2201   ZZ=           -209.1297
   XY=             14.2830   XZ=            -26.2960   YZ=            -16.7856

 Normal termination of Gaussian 16 at Thu Nov 12 05:45:24 2020.
