 Gaussian 16, Revision C.01,
 Gaussian 16:  ES64L-G16RevC.01  3-Jul-2019

 ----------------------------------------------------------------------
 # cam-b3lyp/gen pseudo=read TD=NStates=10 Geom=Check Guess=Read empiri
 caldispersion=gd3bj SCRF=(read)
 ----------------------------------------------------------------------

 -------
 PbI2_PC
 -------
 Structure from the checkpoint file:  "02-PbI2_PC.chk"
 Charge =  0 Multiplicity = 1

                         Standard orientation:
 ---------------------------------------------------------------------
 Center     Atomic      Atomic             Coordinates (Angstroms)
 Number     Number       Type             X           Y           Z
 ---------------------------------------------------------------------
      1         82           0        0.357104   -0.757517   -0.343699
      2         53           0        1.171303   -3.626793   -1.066542
      3         53           0        1.499202   -0.677803    2.547499
      4          8           0       -0.918334   -0.285942   -2.833565
      5          6           0       -0.919618    0.935566   -2.897725
      6          8           0        0.180262    1.693213   -2.711357
      7          8           0       -2.022693    1.677451   -3.145625
      8          6           0       -0.218897    3.104131   -2.622305
      9          6           0       -1.627537    3.073968   -3.236935
     10          6           0        0.785510    3.971099   -3.345753
     11          1           0       -2.363612    3.676322   -2.676902
     12          1           0       -1.630789    3.364509   -4.307125
     13          1           0        0.853767    3.690805   -4.415277
     14          1           0        1.786694    3.877826   -2.883798
     15          1           0        0.473287    5.032032   -3.276708
     16          1           0       -0.258436    3.329221   -1.538835
     17          8           0       -0.985092    1.730305    0.121189
     18          6           0       -1.458606    1.952735    1.226217
     19          8           0       -2.631802    1.438652    1.658864
     20          8           0       -0.873114    2.737976    2.154413
     21          6           0       -2.776328    1.714858    3.097432
     22          6           0       -1.761476    2.855164    3.300537
     23          6           0       -2.486051    0.448771    3.879706
     24          1           0       -2.223067    3.860490    3.274593
     25          1           0       -1.153711    2.736225    4.215004
     26          1           0       -1.437880    0.121508    3.721933
     27          1           0       -3.166676   -0.363131    3.560929
     28          1           0       -2.642895    0.640012    4.959773
     29          1           0       -3.816724    2.059898    3.238811
     30          8           0        2.711725    0.109264   -1.045541
     31          6           0        3.025789    1.248677   -0.705508
     32          8           0        2.140330    2.208353   -0.386548
     33          8           0        4.301655    1.659326   -0.610449
     34          6           0        2.868727    3.354780    0.184077
     35          6           0        4.303687    3.083585   -0.303227
     36          6           0        2.681574    3.366783    1.688028
     37          1           0        4.559946    3.632315   -1.229508
     38          1           0        5.069192    3.262102    0.472414
     39          1           0        3.126932    2.462395    2.148557
     40          1           0        1.604319    3.395265    1.938771
     41          1           0        3.172589    4.264894    2.112250
     42          1           0        2.437134    4.255232   -0.290171
     43          8           0       -1.771670   -1.683187    0.835398
     44          6           0       -2.853428   -1.218589    0.475825
     45          8           0       -3.028571   -0.540338   -0.665368
     46          8           0       -3.983136   -1.348655    1.194184
     47          6           0       -4.377630    0.046028   -0.668525
     48          6           0       -5.080169   -0.783367    0.417754
     49          6           0       -4.968615   -0.042392   -2.055934
     50          1           0       -5.705297   -0.180208    1.098121
     51          1           0       -5.668312   -1.623576   -0.002593
     52          1           0       -5.052928   -1.097644   -2.381917
     53          1           0       -4.336611    0.513760   -2.773416
     54          1           0       -5.979773    0.410365   -2.054096
     55          1           0       -4.244528    1.097275   -0.344930
 ---------------------------------------------------------------------

 SCF Done:  E(RCAM-B3LYP) =  -1553.29559489     A.U. after   11 cycles

 Excitation energies and oscillator strengths:

 Excited State   1:      Singlet-A      5.2483 eV  236.24 nm  f=0.0301  <S**2>=0.000
     116 -> 118        0.48918
     117 -> 118       -0.26257
     117 -> 119       -0.39735
 This state for optimization and/or second-order correction.
 Total Energy, E(TD-HF/TD-DFT) =  -1553.10272246
 Copying the excited state density for this state as the 1-particle RhoCI density.

 Excited State   2:      Singlet-A      5.3112 eV  233.44 nm  f=0.1227  <S**2>=0.000
     113 -> 118        0.14346
     116 -> 119       -0.34194
     117 -> 118        0.53119
     117 -> 119       -0.21617

 Excited State   3:      Singlet-A      5.3988 eV  229.65 nm  f=0.0584  <S**2>=0.000
     113 -> 118       -0.12973
     115 -> 118        0.11485
     116 -> 118        0.19776
     116 -> 119        0.53118
     117 -> 118        0.32968

 Excited State   4:      Singlet-A      5.4073 eV  229.29 nm  f=0.0023  <S**2>=0.000
     114 -> 118        0.17130
     114 -> 119        0.15739
     115 -> 118        0.60942
     115 -> 119        0.18543

 Excited State   5:      Singlet-A      5.4459 eV  227.67 nm  f=0.0052  <S**2>=0.000
     114 -> 118        0.31844
     114 -> 119       -0.39689
     115 -> 118       -0.11835
     115 -> 119        0.40310
     117 -> 120       -0.18576

 Excited State   6:      Singlet-A      5.5293 eV  224.23 nm  f=0.0711  <S**2>=0.000
     114 -> 118        0.11613
     115 -> 119        0.12939
     117 -> 119        0.13290
     117 -> 120        0.63746

 Excited State   7:      Singlet-A      5.6196 eV  220.63 nm  f=0.3622  <S**2>=0.000
     112 -> 118       -0.13414
     113 -> 119       -0.20660
     115 -> 120        0.20858
     116 -> 118        0.34883
     116 -> 119       -0.10160
     117 -> 119        0.44726
     117 -> 120       -0.16069

 Excited State   8:      Singlet-A      5.7626 eV  215.15 nm  f=0.0017  <S**2>=0.000
     114 -> 118       -0.40178
     114 -> 119        0.22132
     115 -> 118       -0.10117
     115 -> 119        0.51687

 Excited State   9:      Singlet-A      5.7904 eV  214.12 nm  f=0.0026  <S**2>=0.000
     114 -> 118        0.41151
     114 -> 119        0.48487
     115 -> 118       -0.26873

 Excited State  10:      Singlet-A      5.8169 eV  213.14 nm  f=0.0009  <S**2>=0.000
     116 -> 120        0.68027

 The electronic state is 1-A.
 Alpha  occ. eigenvalues --  -19.28414 -19.28257 -19.28196 -19.28151 -19.28018
 Alpha  occ. eigenvalues --  -19.27899 -19.27727 -19.27383 -19.22604 -19.22589
 Alpha  occ. eigenvalues --  -19.21873 -19.21382 -10.46188 -10.46070 -10.45761
 Alpha  occ. eigenvalues --  -10.45148 -10.34292 -10.34142 -10.34007 -10.33499
 Alpha  occ. eigenvalues --  -10.33493 -10.33365 -10.33355 -10.33035 -10.25792
 Alpha  occ. eigenvalues --  -10.25652 -10.25427 -10.25330  -1.26319  -1.26267
 Alpha  occ. eigenvalues --   -1.25828  -1.25356  -1.14942  -1.14850  -1.14595
 Alpha  occ. eigenvalues --   -1.14255  -1.14167  -1.14127  -1.13857  -1.13309
 Alpha  occ. eigenvalues --   -0.89501  -0.89416  -0.89248  -0.89123  -0.80388
 Alpha  occ. eigenvalues --   -0.80303  -0.80169  -0.79932  -0.73327  -0.73125
 Alpha  occ. eigenvalues --   -0.72787  -0.72398  -0.71043  -0.70047  -0.69841
 Alpha  occ. eigenvalues --   -0.69741  -0.69656  -0.69375  -0.63239  -0.63123
 Alpha  occ. eigenvalues --   -0.62605  -0.62096  -0.61143  -0.60609  -0.59886
 Alpha  occ. eigenvalues --   -0.59742  -0.58255  -0.57837  -0.57559  -0.57249
 Alpha  occ. eigenvalues --   -0.56523  -0.54904  -0.54574  -0.53622  -0.53595
 Alpha  occ. eigenvalues --   -0.53337  -0.52324  -0.52202  -0.52006  -0.51426
 Alpha  occ. eigenvalues --   -0.50476  -0.50280  -0.50140  -0.49132  -0.48539
 Alpha  occ. eigenvalues --   -0.48352  -0.48008  -0.47319  -0.47199  -0.47045
 Alpha  occ. eigenvalues --   -0.46723  -0.46146  -0.45981  -0.45584  -0.45296
 Alpha  occ. eigenvalues --   -0.43431  -0.43261  -0.42752  -0.42720  -0.41592
 Alpha  occ. eigenvalues --   -0.40588  -0.40468  -0.40167  -0.39806  -0.39779
 Alpha  occ. eigenvalues --   -0.39407  -0.39113  -0.38963  -0.38776  -0.38638
 Alpha  occ. eigenvalues --   -0.38194  -0.32060  -0.30381  -0.29633  -0.29046
 Alpha  occ. eigenvalues --   -0.28525  -0.27963
 Alpha virt. eigenvalues --    0.01043   0.01165   0.02260   0.05060   0.05276
 Alpha virt. eigenvalues --    0.05557   0.06369   0.06453   0.06523   0.07938
 Alpha virt. eigenvalues --    0.08586   0.09055   0.09504   0.09759   0.10186

 Mulliken charges:
               1
     1  Pb   0.975718
     2  I   -0.631747
     3  I   -0.639344
     4  O   -0.388385
     5  C    0.402244
     6  O   -0.244264
     7  O   -0.227926
     8  C    0.077288
     9  C    0.018563
    10  C   -0.290069
    11  H    0.122182
    12  H    0.117456
    13  H    0.107510
    14  H    0.118833
    15  H    0.116576
    16  H    0.138976
    17  O   -0.395998
    18  C    0.421182
    19  O   -0.255430
    20  O   -0.220909
    21  C    0.070560
    22  C    0.015888
    23  C   -0.278399
    24  H    0.127207
    25  H    0.120087
    26  H    0.088858
    27  H    0.112359
    28  H    0.119373
    29  H    0.137099
    30  O   -0.425649
    31  C    0.433312
    32  O   -0.234728
    33  O   -0.217929
    34  C    0.057361
    35  C    0.017128
    36  C   -0.279533
    37  H    0.130044
    38  H    0.126747
    39  H    0.098103
    40  H    0.115438
    41  H    0.116005
    42  H    0.140900
    43  O   -0.430889
    44  C    0.455197
    45  O   -0.231160
    46  O   -0.229925
    47  C    0.078381
    48  C    0.008287
    49  C   -0.283692
    50  H    0.130493
    51  H    0.128076
    52  H    0.105208
    53  H    0.114580
    54  H    0.115285
    55  H    0.127473
 Sum of Mulliken charges =  -0.00000

 Dipole moment (field-independent basis, Debye):
    X=            -15.1794    Y=             29.8946    Z=             -0.4760  Tot=             33.5310
 Quadrupole moment (field-independent basis, Debye-Ang):
   XX=           -156.0840   YY=           -203.4178   ZZ=           -211.1462
   XY=             25.7565   XZ=            -14.6590   YZ=             -8.4580

 Normal termination of Gaussian 16 at Thu Nov 12 00:16:30 2020.
